LAMMPS data file via write_data, version 29 Oct 2020, timestep = 1000 > cluster_extract v3.4 / 25 September 2024

4706 atoms

3 atom types

-18.641262324024485 18.641262324024485 xlo xhi
-18.96748521461177 18.96748521461177 ylo yhi
-18.70124992711957 18.70124992711957 zlo zhi

Masses

 1   12.00000  #  C    
 2   1.00800   #  H    
 3   15.99900  #  O    

Atoms # charge

 1  1   0.201635   15.682965591    -14.814403197   -7.064741335     -1    0    0   #     C        Sp2
 2  1   0.004917   16.743591298    -14.664122284   -6.024351088     -1    0    0   #     C        Sp2
 3  1  -0.018778   18.027170592    -14.627885947   -6.330926395     -1    0    0   #     C        Sp2
 4  1   0.172827   -18.566585173   -14.489606583   -7.644334506      0    0    0   #     C        Sp2
 5  1  -0.010057   -17.020192112   -14.370867773   -7.418489472      0    0    0   #     C        Sp3
 6  3  -0.453982   18.298641616    -14.348032421   -8.713490973     -1    0    0   #     O        Sp2
 7  3  -0.469581   14.599509910    -14.411326697   -7.011079022     -1    0    0   #     O        Sp2
 8  1   0.137480   -16.170727726   -15.357592080   -8.227237785      0    0    0   #     C        Sp2
 9  1  -0.003977   -16.829712666   -16.279589852   -9.019901380      0    0    0   #     C        Sp2
10  1  -0.021802   -15.803319674   -17.000653890   -9.632629783      0    0    0   #     C        Sp2
11  1   0.081520   -14.534887658   -16.476144863   -9.198200506      0    0    0   #     C        Sp2
12  3  -0.486518   -14.804997609   -15.228789263   -8.218262945      0    0    0   #     O        Sp2
13  1  -0.020616   -13.364744030   -16.939420648   -9.567686868      0    0    0   #     C        Sp2
14  1   0.027609   16.055272785    -15.918765904   -8.089793100     -1    0    0   #     C        Sp3
15  1   0.132338   12.529768333    18.806807668    -7.170750017     -1   -1    0   #     C        Sp1
16  1  -0.015634   13.741004724    -18.667210478   -6.857062228     -1    0    0   #     C        Sp2
17  1  -0.009017   14.460227990    -17.517650720   -7.499894168     -1    0    0   #     C        Sp2
18  1   0.159541   15.733661024    -17.235656366   -7.426849955     -1    0    0   #     C        Sp2
19  3  -0.489203   16.745570307    -17.871641979   -6.901057274     -1    0    0   #     O        Sp3
20  2   0.091686   16.465082218    -14.574580110   -4.992257331     -1    0    0   #     H   Terminal
21  2   0.054208   -18.568833960   -14.519157034   -5.546073771      0    0    0   #     H   Terminal
22  2   0.062379   -16.706269474   -13.320939433   -7.531655138      0    0    0   #     H   Terminal
23  2   0.041161   -16.640830302   -14.317060437   -6.375294588      0    0    0   #     H   Terminal
24  2   0.091484   -17.909540354   -16.369649194   -9.177368733      0    0    0   #     H   Terminal
25  2   0.087765   -15.971691570   -17.727816510   -10.412692224     0    0    0   #     H   Terminal
26  2   0.069329   -13.313737161   -17.739535965   -10.310494278     0    0    0   #     H   Terminal
27  2   0.128695   -12.444306538   -16.449842563   -9.218526212      0    0    0   #     H   Terminal
28  2   0.086375   15.602762247    -15.545393597   -9.015338743     -1    0    0   #     H   Terminal
29  2   0.102572   17.002922497    -16.123393591   -8.519961711     -1    0    0   #     H   Terminal
30  2   0.102447   14.242491755    18.535329783    -6.159834759     -1   -1    0   #     H   Terminal
31  2   0.067147   13.722466309    -16.969159432   -8.032782482     -1    0    0   #     H   Terminal
32  1   0.200173   -3.895347895    -17.731118376    5.708660521      0    0   -1   #     C        Sp2
33  1  -0.000550   -4.198011090    -16.430508782    6.369654091      0    0   -1   #     C        Sp2
34  1  -0.026338   -5.407065188    -16.074225545    6.881493901      0    0   -1   #     C        Sp2
35  1   0.159286   -6.637974162    -16.773211460    6.578225108      0    0   -1   #     C        Sp2
36  1   0.018235   -8.011996966    -16.329648224    7.230014688      0    0   -1   #     C        Sp3
37  3  -0.500234   -6.644875932    -17.774647790    5.941809242      0    0   -1   #     O        Sp2
38  3  -0.501629   -3.264087178    -17.841735119    4.728356733      0    0   -1   #     O        Sp2
39  1   0.144150   -7.934138632    -14.868584196    7.580242128      0    0   -1   #     C        Sp2
40  1  -0.018482   -7.537523752    -14.004861105    6.567809915      0    0   -1   #     C        Sp2
41  1  -0.028922   -7.627968828    -12.767362065    7.200473149      0    0   -1   #     C        Sp2
42  1   0.086221   -8.275148688    -12.964544882    8.526120290      0    0   -1   #     C        Sp2
43  3  -0.455879   -8.453541402    -14.527919917    8.785638440      0    0   -1   #     O        Sp2
44  1  -0.044137   -8.549530703    -12.023175060    9.257708826      0    0   -1   #     C        Sp2
45  1   0.019764   -4.378975883    18.930897815     6.469686449      0   -1   -1   #     C        Sp3
46  1   0.210866   -0.669044729    16.270800370     7.158267812      0   -1   -1   #     C        Sp2
47  1  -0.006016   -1.927524375    16.128488708     6.298887027      0   -1   -1   #     C        Sp2
48  1  -0.009273   -3.058815898    17.043707450     6.184555394      0   -1   -1   #     C        Sp2
49  1   0.151662   -3.245085086    18.100909188     6.964037428      0   -1   -1   #     C        Sp2
50  3  -0.509603   -2.605601029    18.575290479     8.088763730      0   -1   -1   #     O        Sp3
51  2   0.081784   -3.427929292    -15.691578645    6.487296812      0    0   -1   #     H   Terminal
52  2   0.042904   -5.413707044    -15.146541066    7.386358311      0    0   -1   #     H   Terminal
53  2   0.106418   -8.930970696    -16.433399223    6.611047141      0    0   -1   #     H   Terminal
54  2   0.125209   -8.276764059    -16.955257699    8.079986409      0    0   -1   #     H   Terminal
55  2   0.045387   -7.146901780    -14.223438394    5.506002935      0    0   -1   #     H   Terminal
56  2   0.075618   -7.344338804    -11.836831293    6.761110393      0    0   -1   #     H   Terminal
57  2   0.035256   -8.332066705    -11.001906420    8.874794037      0    0   -1   #     H   Terminal
58  2   0.101884   -8.992841518    -12.163553246   10.245948353      0    0   -1   #     H   Terminal
59  2   0.091130   -4.990495149    -18.592624839    7.219905286      0    0   -1   #     H   Terminal
60  2   0.072827   -5.057733294    18.346220985     5.828800759      0   -1   -1   #     H   Terminal
61  2   0.070476   -1.614693225    15.349903647     5.650274420      0   -1   -1   #     H   Terminal
62  2   0.060914   -3.719288907    16.970793467     5.327249236      0   -1   -1   #     H   Terminal
63  1   0.135149   -10.367473485   -5.579181825    -1.720766059      0    0    0   #     C        Sp2
64  3  -0.500517   -11.670602018   -5.268764680    -2.201452188      0    0    0   #     O        Sp2
65  1   0.143543   -11.556782787   -3.796626658    -2.063778144      0    0    0   #     C        Sp2
66  1  -0.006142   -10.315540654   -3.280553030    -1.703776748      0    0    0   #     C        Sp2
67  1  -0.006769   -9.577543701    -4.452727629    -1.485812367      0    0    0   #     C        Sp2
68  1  -0.009841   -9.896761095    -6.897620092    -1.695103669      0    0    0   #     C        Sp2
69  1   0.150732   -12.819672208   -1.594988981    -2.085448677      0    0    0   #     C        Sp2
70  3  -0.461754   -13.771047081   -0.824555264    -2.785077990      0    0    0   #     O        Sp2
71  1   0.231537   -13.357954405    0.580514528    -2.161571854      0    0    0   #     C        Sp2
72  1   0.005590   -12.257096964    0.301443058    -1.096519554      0    0    0   #     C        Sp2
73  1  -0.010283   -11.981647649   -0.978568232    -1.103253161      0    0    0   #     C        Sp2
74  1   0.054870   -12.678289285   -2.998480670    -2.380005692      0    0    0   #     C        Sp2
75  1   0.123100   -8.587765485    -7.244445395    -1.244882318      0    0    0   #     C        Sp2
76  1  -0.031771   -8.268080561    -8.618819769    -1.223873325      0    0    0   #     C        Sp2
77  1  -0.026882   -6.936071196    -8.868445234    -0.829772194      0    0    0   #     C        Sp2
78  1   0.105580   -6.538685356    -7.498715588    -0.622615410      0    0    0   #     C        Sp2
79  3  -0.468999   -7.593522912    -6.382945959    -0.825562375      0    0    0   #     O        Sp2
80  1  -0.033917   -5.318427972    -7.489500037    -0.263406617      0    0    0   #     C        Sp2
81  2   0.068620   -9.903016769    -2.295548455    -1.643159710      0    0    0   #     H   Terminal
82  2   0.087066   -8.514222310    -4.442634721    -1.251552660      0    0    0   #     H   Terminal
83  2   0.039375   -10.459295701   -7.704935452    -2.110623475      0    0    0   #     H   Terminal
84  2   0.098431   -11.729910387    1.038461026    -0.508365177      0    0    0   #     H   Terminal
85  2   0.060718   -11.227187004   -1.443974059    -0.489809586      0    0    0   #     H   Terminal
86  2   0.142168   -13.474779527   -3.438421516    -2.920123149      0    0    0   #     H   Terminal
87  2   0.040008   -8.934972565    -9.352177656    -1.543742757      0    0    0   #     H   Terminal
88  2   0.073969   -6.432958882    -9.777054713    -0.644778521      0    0    0   #     H   Terminal
89  2   0.128064   -4.684091729    -8.457056344    -0.183207040      0    0    0   #     H   Terminal
90  2   0.048428   -4.809423114    -6.580023523    -0.035085391      0    0    0   #     H   Terminal
91  1   0.167640   15.868902715    -1.509341121    -8.582473797     -1    0    0   #     C        Sp2
92  3  -0.487730   16.662105592    -0.424007532    -8.805224157     -1    0    0   #     O        Sp2
93  1   0.095987   17.759268699    -0.803396206    -7.692874228     -1    0    0   #     C        Sp2
94  1  -0.019104   17.533870728    -1.988743483    -7.058780231     -1    0    0   #     C        Sp2
95  1   0.019996   16.306483102    -2.427464598    -7.571119754     -1    0    0   #     C        Sp2
96  1   0.017219   14.610656514    -1.654958297    -9.286525191     -1    0    0   #     C        Sp2
97  1   0.139069   -17.165152492   -0.238188454    -6.865793185      0    0    0   #     C        Sp2
98  3  -0.480050   -16.254691831    0.792915680    -6.699129641      0    0    0   #     O        Sp2
99  1   0.119399   -15.173172420   -0.160540172    -5.977139977      0    0    0   #     C        Sp2
100 1   0.004464   -15.528668029   -1.545643425    -5.908603318      0    0    0   #     C        Sp2
101 1   0.008969   -16.787749363   -1.558218155    -6.518877182      0    0    0   #     C        Sp2
102 1   0.009438   -18.403229052    0.033374019    -7.476250083      0    0    0   #     C        Sp2
103 1   0.137084   13.700702422    -2.628236996    -8.916453587     -1    0    0   #     C        Sp2
104 1  -0.026438   12.482238608    -2.690840250    -9.609487325     -1    0    0   #     C        Sp2
105 1  -0.040316   11.607106737    -3.675916674    -9.110618250     -1    0    0   #     C        Sp2
106 1   0.090419   12.471925723    -4.154723983    -8.066459785     -1    0    0   #     C        Sp2
107 3  -0.467791   13.922735139    -3.534382292    -7.877634432     -1    0    0   #     O        Sp2
108 1  -0.055316   11.942097120    -5.090902979    -7.448311113     -1    0    0   #     C        Sp2
109 2   0.081809   18.129318757    -2.528796743    -6.304135439     -1    0    0   #     H   Terminal
110 2   0.115049   15.809628156    -3.357433682    -7.240847165     -1    0    0   #     H   Terminal
111 2   0.051357   14.376816379    -1.005188446    -10.064093489    -1    0    0   #     H   Terminal
112 2   0.100076   -14.947917228   -2.398445278    -5.606066047      0    0    0   #     H   Terminal
113 2   0.087247   -17.385607596   -2.390897063    -6.687705378      0    0    0   #     H   Terminal
114 2   0.087045   -18.448839978    1.067785394    -7.788979477      0    0    0   #     H   Terminal
115 2   0.037781   12.187610714    -1.944720147    -10.337991118    -1    0    0   #     H   Terminal
116 2   0.047618   10.580343499    -3.921221360    -9.359749881     -1    0    0   #     H   Terminal
117 2   0.067559   10.975803930    -5.478000848    -7.634340240     -1    0    0   #     H   Terminal
118 2   0.048681   12.515764794    -5.468978078    -6.631389838     -1    0    0   #     H   Terminal
119 1   0.005594   16.535121765    -14.605539173   10.704485428      0   -1   -1   #     C        Sp1
120 3  -0.466644   16.655977356    -12.329875877    9.123280006      0   -1   -1   #     O        Sp3
121 1   0.146809   15.744608484    -11.824801289   10.031827377      0   -1   -1   #     C        Sp2
122 1  -0.038107   15.282606687    -12.434776391   11.196580891      0   -1   -1   #     C        Sp2
123 1  -0.037355   15.742345007    -13.754478066   11.525801667      0   -1   -1   #     C        Sp2
124 1   0.009202   17.293566509    -15.390676661    9.892909155      0   -1   -1   #     C        Sp2
125 1  -0.016447   15.169843094    -10.541840051   10.052768199      0   -1   -1   #     C        Sp2
126 2   0.020338   14.683737903    -11.897564594   11.914830481      0   -1   -1   #     H   Terminal
127 2   0.041967   15.446761419    -14.095672519   12.511681862      0   -1   -1   #     H   Terminal
128 2   0.107733   17.523880153    -16.374286943    9.506518317      0   -1   -1   #     H   Terminal
129 2   0.034902   14.381591771    -10.328100718   10.785928397      0   -1   -1   #     H   Terminal
130 1   0.137895   -16.793930579   -8.394017644     8.979223209      0    0   -1   #     C        Sp2
131 3  -0.479446   -15.586708851   -9.038659026     9.693507217      0    0   -1   #     O        Sp2
132 1   0.166017   -15.957472921   -8.478973589    10.941438768      0    0   -1   #     C        Sp2
133 1  -0.014215   -17.148768130   -7.714770517    10.960139064      0    0   -1   #     C        Sp2
134 1  -0.046732   -17.761051603   -7.615683133     9.683901984      0    0   -1   #     C        Sp2
135 1   0.144918   -17.147861224   -8.384663072     7.711876371      0    0   -1   #     C        Sp2
136 1   0.174748   -15.368141287   -8.613914798    12.114855651      0    0   -1   #     C        Sp2
137 2   0.109630   -17.568443373   -7.229793984    11.846143340      0    0   -1   #     H   Terminal
138 2   0.036956   -18.637974985   -7.036347969     9.426491060      0    0   -1   #     H   Terminal
139 2   0.052739   -18.076474965   -7.873442033     7.535300221      0    0   -1   #     H   Terminal
140 2   0.086492   -15.676293339   -8.101769082    13.086840808      0    0   -1   #     H   Terminal
141 1   0.084968   -13.923055193   -10.277332360   18.686972548      1    1   -1   #     C        Sp2
142 3  -0.453555   -12.882944015   -9.620882771    17.584726897      1    1   -1   #     O        Sp3
143 1   0.083828   -12.949836362   -11.091400788   16.848566072      1    1   -1   #     C        Sp2
144 1  -0.025139   -13.567044076   -12.228423260   17.501050468      1    1   -1   #     C        Sp2
145 1  -0.033559   -14.141603666   -11.714345532   18.581106866      1    1   -1   #     C        Sp2
146 1  -0.042907   -14.459675300   -9.574518823    -17.681460165     1    1    0   #     C        Sp1
147 1  -0.051592   -12.491796441   -11.575199731   15.731669951      1    1   -1   #     C        Sp1
148 2   0.099357   -13.557747105   -13.241983782   17.195941762      1    1   -1   #     H   Terminal
149 2   0.062974   -14.687156119   -12.294369291   -18.020358923     1    1    0   #     H   Terminal
150 2   0.047304   -14.582017803   -8.709345589    -17.117709387     1    1    0   #     H   Terminal
151 2   0.037043   -12.205070311   -12.075958719   14.806573175      1    1   -1   #     H   Terminal
152 1   0.099034   -12.416488142   -2.505949079    -14.591571777     0    0    0   #     C        Sp3
153 1  -0.014188   -13.198295461   -3.745597804    -14.856674051     0    0    0   #     C        Sp2
154 1  -0.019065   -12.524061126   -4.581529288    -14.099106912     0    0    0   #     C        Sp2
155 1   0.102873   -11.413095828   -4.000410392    -13.386341212     0    0    0   #     C        Sp3
156 1   0.165861   -9.011557161    -3.005718870    -13.856920725     0    0    0   #     C        Sp2
157 3  -0.477797   -8.969013290    -1.711292103    -14.197382044     0    0    0   #     O        Sp2
158 1   0.096241   -10.028913714   -1.552244558    -15.427938888     0    0    0   #     C        Sp2
159 1  -0.004523   -10.993028200   -2.740204731    -15.388089140     0    0    0   #     C        Sp3
160 1   0.019897   -10.244177394   -3.754060615    -14.327495286     0    0    0   #     C        Sp3
161 1   0.027739   -10.079642925   -0.437795742    -15.937305686     0    0    0   #     C        Sp2
162 1  -0.002783   -13.187411130   -1.328307555    -15.238569499     0    0    0   #     C        Sp3
163 1   0.007329   -11.002080336   -4.892189316    -12.235076084     0    0    0   #     C        Sp3
164 1   0.015012   -7.993647999    -3.569560276    -13.207742755     0    0    0   #     C        Sp2
165 3  -0.507945   -11.853547641   -2.492847606    -13.139640226     0    0    0   #     O        Sp2
166 1   0.031422   -12.947516266   -0.821239268    18.142996939      0    0   -1   #     C        Sp1
167 1  -0.022240   -11.897361563   -1.684704300    18.393488888      0    0   -1   #     C        Sp2
168 1  -0.022281   -11.045912268   -1.500555681    -17.850095581     0    0    0   #     C        Sp2
169 1   0.114377   -10.969779985   -0.448444555    -17.027470606     0    0    0   #     C        Sp2
170 3  -0.463142   -11.707349424    0.928151691    -17.184017253     0    0    0   #     O        Sp3
171 3  -0.486636   -8.810984655    -5.948186126    -13.240506719     0    0    0   #     O        Sp2
172 1   0.119369   -7.905566415    -4.955273927    -12.741106778     0    0    0   #     C        Sp2
173 1  -0.011851   -6.891184815    -5.305393982    -11.876313021     0    0    0   #     C        Sp2
174 1  -0.008287   -7.149775873    -6.621342604    -11.552925814     0    0    0   #     C        Sp2
175 1   0.109553   -8.364708479    -7.052642706    -12.258772048     0    0    0   #     C        Sp2
176 3  -0.472376   -15.451228960   -0.316425595    -14.854765411     0    0    0   #     O        Sp2
177 1   0.091721   -16.628180808   -0.554042619    -13.701233710     0    0    0   #     C        Sp2
178 1  -0.018818   -15.885010868   -1.363451927    -12.738033879     0    0    0   #     C        Sp2
179 1  -0.004977   -14.619769895   -1.733458068    -13.200877178     0    0    0   #     C        Sp2
180 1   0.154012   -14.476450837   -1.123323130    -14.401518295     0    0    0   #     C        Sp2
181 1   0.154575   -12.113429933   -5.032960912    -11.145614113     0    0    0   #     C        Sp2
182 1  -0.036783   -12.971352801   -6.125164640    -11.311797738     0    0    0   #     C        Sp2
183 1  -0.053382   -14.038600098   -5.881746387    -10.550666181     0    0    0   #     C        Sp2
184 1   0.081587   -13.760376581   -4.621854606    -9.773354339      0    0    0   #     C        Sp3
185 3  -0.480520   -12.332386953   -4.118242683    -10.223205688     0    0    0   #     O        Sp2
186 1  -0.039028   -17.780183041   -0.192670864    -13.630956012     0    0    0   #     C        Sp2
187 1  -0.043278   -8.881547546    -8.222965518    -12.067741540     0    0    0   #     C        Sp2
188 2   0.114801   -14.036727219   -3.874452742    -15.488362954     0    0    0   #     H   Terminal
189 2   0.056401   -12.728846904   -5.627035253    -14.062761720     0    0    0   #     H   Terminal
190 2   0.046140   -11.263630221   -3.205451298    -16.320838135     0    0    0   #     H   Terminal
191 2   0.067586   -10.002272544   -4.654256219    -14.770184710     0    0    0   #     H   Terminal
192 2   0.099199   -9.371662576     0.350346365    -15.680146911     0    0    0   #     H   Terminal
193 2   0.107844   -12.671951576   -0.367834745    -15.575593673     0    0    0   #     H   Terminal
194 2   0.077525   -13.488275039   -1.548136616    -16.235933863     0    0    0   #     H   Terminal
195 2   0.098120   -10.701253285   -5.897246896    -12.673702990     0    0    0   #     H   Terminal
196 2   0.103898   -10.034980443   -4.530069076    -11.802192595     0    0    0   #     H   Terminal
197 2   0.060283   -7.064540522    -2.937551619    -13.040441470     0    0    0   #     H   Terminal
198 2   0.048278   -11.649604219   -2.510744913    17.768276590      0    0   -1   #     H   Terminal
199 2   0.031795   -10.442158310   -2.329717007    -17.579073379     0    0    0   #     H   Terminal
200 2   0.051460   -6.101031408    -4.702728119    -11.529514191     0    0    0   #     H   Terminal
201 2   0.062794   -6.534201285    -7.189871982    -10.877717023     0    0    0   #     H   Terminal
202 2   0.097143   -16.354616265   -1.651800320    -11.799177713     0    0    0   #     H   Terminal
203 2   0.095679   -13.947635336   -2.419091137    -12.623797964     0    0    0   #     H   Terminal
204 2   0.045252   -12.902399851   -6.926447470    -12.037615990     0    0    0   #     H   Terminal
205 2   0.026281   -14.868524989   -6.548156040    -10.398614327     0    0    0   #     H   Terminal
206 2   0.040285   -18.205730957   -0.485276823    -12.690689701     0    0    0   #     H   Terminal
207 2   0.052466   -18.423573600    0.277753437    -14.353219969     0    0    0   #     H   Terminal
208 2   0.025734   -8.468893556    -8.933157672    -11.392338017     0    0    0   #     H   Terminal
209 2   0.081387   -9.745088270    -8.523020104    -12.590052627     0    0    0   #     H   Terminal
210 1   0.062484   -18.331021974   -5.377308856    -13.121802517     0    0    0   #     C        Sp3
211 1  -0.039402   -18.025643578   -6.811286183    -13.449725119     0    0    0   #     C        Sp2
212 1  -0.018591   18.074536893    -7.216292250    -13.754850835    -1    0    0   #     C        Sp2
213 1   0.141125   16.984877226    -6.108392361    -13.537068874    -1    0    0   #     C        Sp3
214 1   0.144080   15.971474001    -5.249756479    -11.280956006    -1    0    0   #     C        Sp2
215 3  -0.476850   16.454429674    -3.922750239    -11.068221412    -1    0    0   #     O        Sp2
216 1   0.130355   17.860643430    -4.053718445    -11.098558047    -1    0    0   #     C        Sp2
217 1  -0.013426   18.369181534    -5.341660690    -11.636855332    -1    0    0   #     C        Sp3
218 1   0.016414   16.981053069    -6.168789213    -11.889990624    -1    0    0   #     C        Sp3
219 1  -0.001315   -18.584949942   -3.059099636    -10.572453181     0    0    0   #     C        Sp2
220 1  -0.034299   -17.077538902   -4.513025191    -13.321666616     0    0    0   #     C        Sp3
221 1   0.010929   15.673473403    -6.613454935    -14.277062133    -1    0    0   #     C        Sp3
222 1   0.016077   14.745307840    -5.727877868    -10.891288322    -1    0    0   #     C        Sp2
223 3  -0.469495   17.438874161    -4.915413453    -13.938675196    -1    0    0   #     O        Sp2
224 1   0.112723   -15.122350596   -2.284299352    -9.814528805      0    0    0   #     C        Sp2
225 1  -0.008038   -15.010390104   -3.667827027    -9.905117814      0    0    0   #     C        Sp2
226 1  -0.044321   -16.348477320   -4.063250598    -10.259087657     0    0    0   #     C        Sp2
227 1   0.102769   -17.197737173   -2.991716746    -10.259051509     0    0    0   #     C        Sp2
228 3  -0.471030   -16.609548325   -1.702229398    -9.891734188      0    0    0   #     O        Sp2
229 3  -0.463505   14.829663674    -8.118055855    -11.533488252    -1    0    0   #     O        Sp2
230 1   0.153882   14.370062526    -7.134595922    -10.785666172    -1    0    0   #     C        Sp2
231 1  -0.022007   13.294080551    -7.293148517    -9.879606397     -1    0    0   #     C        Sp2
232 1  -0.040169   12.823036082    -8.622011789    -9.855630324     -1    0    0   #     C        Sp2
233 1   0.088085   13.677625316    -9.168236814    -10.852845822    -1    0    0   #     C        Sp2
234 3  -0.483873   -15.739514153   -4.919917926    -15.445155938     0    0    0   #     O        Sp2
235 1   0.102670   -16.124861641   -4.359531488    -16.958512305     0    0    0   #     C        Sp2
236 1  -0.004205   -17.423584044   -3.708326830    -16.867215388     0    0    0   #     C        Sp2
237 1   0.014845   -17.870087799   -3.831289939    -15.571082546     0    0    0   #     C        Sp2
238 1   0.161225   -16.854042101   -4.437254828    -14.865807554     0    0    0   #     C        Sp2
239 1   0.143100   14.625948703    -5.523379144    -14.505687122    -1    0    0   #     C        Sp2
240 1   0.015525   14.779518981    -4.443801795    -13.968942599    -1    0    0   #     C        Sp2
241 1  -0.009230   13.734466691    -3.299335869    -14.128403627    -1    0    0   #     C        Sp2
242 1   0.145041   12.604762022    -3.300578956    -14.832487177    -1    0    0   #     C        Sp2
243 3  -0.455100   13.424103269    -5.860811389    -15.414455320    -1    0    0   #     O        Sp3
244 1  -0.032382   -15.456846809   -4.492751748    -18.059305951     0    0    0   #     C        Sp2
245 1  -0.048292   13.449714239    -10.377861081   -11.003512232    -1    0    0   #     C        Sp2
246 2   0.038762   -17.073348176   -7.320686223    -13.401233943     0    0    0   #     H   Terminal
247 2   0.055697   17.966137596    -8.236172873    -14.042110707    -1    0    0   #     H   Terminal
248 2   0.022549   -18.302015033   -5.824629494    -10.882758369     0    0    0   #     H   Terminal
249 2   0.087378   16.890017434    -7.158922492    -11.543992276    -1    0    0   #     H   Terminal
250 2   0.113506   17.962221270    -2.278755799    -10.313584826    -1    0    0   #     H   Terminal
251 2   0.034717   -17.213795230   -3.586365561    -12.795318293     0    0    0   #     H   Terminal
252 2   0.044239   -16.242823917   -4.950347138    -12.787691441     0    0    0   #     H   Terminal
253 2   0.118235   15.963614007    -7.103793178    -15.224034352    -1    0    0   #     H   Terminal
254 2   0.093029   15.220660435    -7.411514282    -13.688714247    -1    0    0   #     H   Terminal
255 2   0.084325   14.133157987    -4.944864577    -10.497379335    -1    0    0   #     H   Terminal
256 2   0.132458   -13.562953658   -4.760747434    -8.679520264      0    0    0   #     H   Terminal
257 2   0.022106   -16.677136594   -5.031782964    -10.415710920     0    0    0   #     H   Terminal
258 2   0.044465   12.865231303    -6.513345707    -9.311704821     -1    0    0   #     H   Terminal
259 2   0.040558   11.962833257    -9.069523929    -9.335193836     -1    0    0   #     H   Terminal
260 2   0.061616   -17.906207619   -3.153901315    -17.696064062     0    0    0   #     H   Terminal
261 2   0.093144   18.512747678    -3.393856225    -15.220502161    -1    0    0   #     H   Terminal
262 2   0.130269   15.653376689    -4.215997190    -13.360086255    -1    0    0   #     H   Terminal
263 2   0.056538   13.854108656    -2.425106825    -13.525041772    -1    0    0   #     H   Terminal
264 2   0.040819   -15.819975157   -4.130537858    18.400060579      0    0   -1   #     H   Terminal
265 2   0.097422   -14.508704224   -4.998631114    -17.981214152     0    0    0   #     H   Terminal
266 2   0.033494   12.741118859    -10.917089959   -10.331169079    -1    0    0   #     H   Terminal
267 2   0.054327   13.956604338    -11.064874961   -11.689420725    -1    0    0   #     H   Terminal
268 1  -0.029534   -12.334420369    2.784291962    -11.111639275     0    0    0   #     C        Sp2
269 1  -0.053517   -12.035852812    2.412215555    -9.792243985      0    0    0   #     C        Sp2
270 1  -0.059658   -11.782035380    1.084662992    -9.399715099      0    0    0   #     C        Sp2
271 1  -0.032104   -11.981794686    0.027903634    -10.276383131     0    0    0   #     C        Sp2
272 1   0.155478   -10.603569619    0.744097369    -12.370034284     0    0    0   #     C        Sp2
273 3  -0.492073   -10.682427085    1.887881093    -13.211537848     0    0    0   #     O        Sp2
274 1   0.146143   -12.028594834    2.198569291    -13.159079890     0    0    0   #     C        Sp2
275 1  -0.002032   -12.693095643    1.723396002    -11.990855272     0    0    0   #     C        Sp3
276 1  -0.006007   -11.915828441    0.258610384    -11.756391940     0    0    0   #     C        Sp3
277 1   0.008482   -12.861507352    2.559393745    -14.319920055     0    0    0   #     C        Sp2
278 1  -0.013480   -12.671303502    4.314749167    -11.417371980     0    0    0   #     C        Sp3
279 1  -0.005599   -12.203820456   -1.276139409    -9.807958734      0    0    0   #     C        Sp2
280 1   0.034610   -9.416786893     0.243533636    -12.048681355     0    0    0   #     C        Sp2
281 3  -0.569613   -5.963332573     0.136627905    -6.648034122      0    0    0   #     O        Sp3
282 1   0.114607   -16.072776519    3.889240749    -13.826164372     0    0    0   #     C        Sp2
283 1  -0.032168   -15.923419397    3.602820235    -15.255526393     0    0    0   #     C        Sp2
284 1  -0.024077   -14.602315915    3.124203829    -15.522924227     0    0    0   #     C        Sp2
285 1   0.125668   -14.117869835    3.097601378    -14.199762440     0    0    0   #     C        Sp2
286 3  -0.478298   -14.847727439    3.539857776    -13.036030937     0    0    0   #     O        Sp2
287 3  -0.557771   -10.094758081   -2.005080725    -11.370367677     0    0    0   #     O        Sp3