LAMMPS data file via write_data, version 29 Oct 2020, timestep = 1000 > cluster_extract v3.4 / 25 September 2024

4563 atoms
4918 bonds

3 atom types
1 bond types

-18.664773334069952 18.664773334069952 xlo xhi
-19.056636116432298 19.056636116432298 ylo yhi
-19.305239546874983 19.305239546874983 zlo zhi

Masses

 1   12.00000  #  C    
 2   1.00800   #  H    
 3   15.99900  #  O    

Bond Coeffs


Atoms # charge

 1  1   0.179921   17.535961852    -13.697663701   -6.955926571     -1    0    0   #     C        Sp2
 2  1  -0.001695   18.501572408    -12.754089073   -7.549222760     -1    0    0   #     C        Sp2
 3  1  -0.006929   -17.521018469   -12.740944297   -7.610577137      0    0    0   #     C        Sp2
 4  1   0.202778   -16.586962498   -13.507629599   -6.706702126      0    0    0   #     C        Sp2
 5  1  -0.020487   -15.135262156   -12.986286810   -6.942162680      0    0    0   #     C        Sp3
 6  3  -0.478120   -16.919762813   -14.379696425   -6.015312831      0    0    0   #     O        Sp2
 7  3  -0.501352   16.418628627    -13.421713235   -6.709442706     -1    0    0   #     O        Sp2
 8  1   0.127525   -14.872327066   -11.746230459   -6.048496146      0    0    0   #     C        Sp2
 9  1  -0.032954   -13.637624228   -11.180135203   -6.266216281      0    0    0   #     C        Sp2
10  1  -0.021189   -13.564620925   -10.119412508   -5.370727358      0    0    0   #     C        Sp2
11  1   0.079834   -14.791582323   -10.066026507   -4.594038732      0    0    0   #     C        Sp2
12  3  -0.478433   -15.771341818   -11.251897464   -5.150226366      0    0    0   #     O        Sp2
13  1  -0.020391   -15.082174521   -9.189038583    -3.689439373      0    0    0   #     C        Sp2
14  1   0.039184   17.898113475    -15.186227500   -6.657687408     -1    0    0   #     C        Sp3
15  1   0.143732   13.507345680    -16.818608029   -7.886647711     -1    0    0   #     C        Sp2
16  1  -0.016078   14.874889894    -16.955010027   -8.010686146     -1    0    0   #     C        Sp2
17  1  -0.006234   15.778667855    -15.899582912   -7.603921540     -1    0    0   #     C        Sp2
18  1   0.159337   17.091832949    -16.182082314   -7.443581875     -1    0    0   #     C        Sp2
19  3  -0.508094   17.765561135    -17.304167127   -7.715337629     -1    0    0   #     O        Sp3
20  2   0.066937   17.992544850    -11.997792559   -8.178087121     -1    0    0   #     H   Terminal
21  2   0.046277   -16.910273132   -12.044924294   -8.163748850      0    0    0   #     H   Terminal
22  2   0.051517   -14.465818691   -13.839025509   -6.723522043      0    0    0   #     H   Terminal
23  2   0.032371   -14.787257355   -12.779223352   -7.957432765      0    0    0   #     H   Terminal
24  2   0.051648   -12.923041837   -11.441333365   -6.968002556      0    0    0   #     H   Terminal
25  2   0.073456   -12.708989570   -9.459118317    -5.302403872      0    0    0   #     H   Terminal
26  2   0.090247   -14.386267225   -8.483062296    -3.366180253      0    0    0   #     H   Terminal
27  2   0.073858   -16.015890443   -9.339243744    -3.149963229      0    0    0   #     H   Terminal
28  2   0.146202   -18.406704816   -15.534904057   -6.967783139      0    0    0   #     H   Terminal
29  2   0.107900   17.805649171    -15.393933534   -5.566062413     -1    0    0   #     H   Terminal
30  2   0.080185   15.390581373    -17.865405941   -8.436982024     -1    0    0   #     H   Terminal
31  2   0.108698   15.355975810    -14.949672425   -7.296924684     -1    0    0   #     H   Terminal
32  1   0.174706   -5.364494707    -17.608390426    6.603152548      0    0   -1   #     C        Sp2
33  1  -0.013207   -5.881105498    -16.627786880    5.659615583      0    0   -1   #     C        Sp2
34  1  -0.017107   -6.494013924    -15.468717143    5.956808221      0    0   -1   #     C        Sp2
35  1   0.182270   -6.872399728    -14.998129681    7.275955636      0    0   -1   #     C        Sp2
36  1  -0.014574   -7.591185990    -13.590001793    7.228481618      0    0   -1   #     C        Sp3
37  3  -0.480696   -6.653443886    -15.558214255    8.286962366      0    0   -1   #     O        Sp2
38  3  -0.512750   -5.181723570    -18.694704297    6.252423028      0    0   -1   #     O        Sp2
39  1   0.130177   -8.388746720    -13.317426211    5.893617367      0    0   -1   #     C        Sp2
40  1  -0.038169   -9.765558620    -13.307534063    6.101255661      0    0   -1   #     C        Sp2
41  1  -0.021187   -10.259589138   -12.985824403    4.867683328      0    0   -1   #     C        Sp2
42  1   0.099092   -9.173904333    -12.688492642    3.959036353      0    0   -1   #     C        Sp2
43  3  -0.467836   -7.783961547    -13.082803838    4.709279911      0    0   -1   #     O        Sp2
44  1  -0.017939   -9.381007641    -12.304754021    2.781720574      0    0   -1   #     C        Sp2
45  1   0.026846   -4.833099780    -17.175253906    8.071512116      0    0   -1   #     C        Sp3
46  1   0.125674   -1.032452909    18.275926368     8.001368497      0   -1   -1   #     C        Sp1
47  1  -0.010184   -2.136319728    18.216483670     8.716111375      0   -1   -1   #     C        Sp2
48  1   0.005321   -3.439081929    -19.039578554    8.318863767      0    0   -1   #     C        Sp2
49  1   0.126075   -3.620956754    -17.864530069    8.569539099      0    0   -1   #     C        Sp2
50  3  -0.457962   -2.659461642    -16.997145472    9.478361618      0    0   -1   #     O        Sp3
51  2   0.060791   -5.783433573    -16.886340226    4.595726684      0    0   -1   #     H   Terminal
52  2   0.109374   -6.903766485    -14.720616797    5.251524166      0    0   -1   #     H   Terminal
53  2   0.044921   -8.292656319    -13.397891228    8.081491131      0    0   -1   #     H   Terminal
54  2   0.064566   -6.835518324    -12.854488227    7.390922933      0    0   -1   #     H   Terminal
55  2   0.022290   -10.289397318   -13.551047342    7.008624381      0    0   -1   #     H   Terminal
56  2   0.049575   -11.280464570   -13.050519782    4.652143268      0    0   -1   #     H   Terminal
57  2   0.121512   -10.456798552   -12.112610266    2.614226675      0    0   -1   #     H   Terminal
58  2   0.069784   -8.665762664    -12.113934183    1.986998744      0    0   -1   #     H   Terminal
59  2   0.153465   -4.705234975    -16.098235946    8.110905560      0    0   -1   #     H   Terminal
60  2   0.097376   -5.773061214    -17.399351045    8.640986742      0    0   -1   #     H   Terminal
61  2   0.070754   -2.115813710    17.457587467     9.450796392      0   -1   -1   #     H   Terminal
62  2   0.092242   -4.170611697    18.493256707     7.740456778      0   -1   -1   #     H   Terminal
63  1   0.153253   -11.368798462   -6.102871361    -3.396591669      0    0    0   #     C        Sp2
64  3  -0.449732   -12.409518591   -5.257923015    -3.819663957      0    0    0   #     O        Sp2
65  1   0.134189   -11.785565408   -3.944663474    -3.400050405      0    0    0   #     C        Sp2
66  1  -0.039957   -10.535137783   -4.044977225    -2.744919824      0    0    0   #     C        Sp2
67  1  -0.012405   -10.301829946   -5.412464092    -2.726754974      0    0    0   #     C        Sp2
68  1   0.014403   -11.393973539   -7.490454357    -3.658437462      0    0    0   #     C        Sp2
69  1   0.129296   -11.773836550   -1.433808737    -3.482877131      0    0    0   #     C        Sp2
70  3  -0.473971   -12.645840702   -0.346003001    -3.340347968      0    0    0   #     O        Sp2
71  1   0.099214   -11.480160623    0.653186316    -2.831149838      0    0    0   #     C        Sp2
72  1  -0.022748   -10.226254971    0.021277241    -2.981749726      0    0    0   #     C        Sp2
73  1  -0.035690   -10.389007990   -1.313086850    -3.350876444      0    0    0   #     C        Sp2
74  1   0.042808   -12.385938097   -2.720914464    -3.705748318      0    0    0   #     C        Sp2
75  1   0.133785   -10.325974918   -8.362939799    -3.281877461      0    0    0   #     C        Sp2
76  1  -0.037162   -10.569957887   -9.756232638    -3.507199489      0    0    0   #     C        Sp2
77  1  -0.045081   -9.517394017    -10.555517099   -2.982567751      0    0    0   #     C        Sp2
78  1   0.087001   -8.706394149    -9.519472076    -2.477286385      0    0    0   #     C        Sp2
79  3  -0.473669   -9.178396489    -7.965048666    -2.693080517      0    0    0   #     O        Sp2
80  1  -0.038638   -7.644528426    -9.988314284    -1.978850266      0    0    0   #     C        Sp2
81  2   0.027460   -9.952622639    -3.284672923    -2.370401105      0    0    0   #     H   Terminal
82  2   0.081143   -9.387985070    -5.847746937    -2.269762086      0    0    0   #     H   Terminal
83  2   0.069244   -12.260671066   -7.906658429    -4.176790422      0    0    0   #     H   Terminal
84  2   0.081016   -9.236573969     0.413337085    -2.727191408      0    0    0   #     H   Terminal
85  2   0.032503   -9.606784928    -2.018465543    -3.566980049      0    0    0   #     H   Terminal
86  2   0.149293   -13.316816619   -2.698721094    -4.287999934      0    0    0   #     H   Terminal
87  2   0.027194   -11.464674305   -10.072030494   -3.941060112      0    0    0   #     H   Terminal
88  2   0.038336   -9.362392985    -11.607435284   -3.068240463      0    0    0   #     H   Terminal
89  2   0.049390   -7.440433904    -11.046809078   -1.990508909      0    0    0   #     H   Terminal
90  2   0.071173   -6.849441985    -9.320047760    -1.647456097      0    0    0   #     H   Terminal
91  1   0.156326   17.556853222    -1.510399692    -8.346802212     -1    0    0   #     C        Sp2
92  3  -0.483622   18.200073329    -0.413298997    -8.851013113     -1    0    0   #     O        Sp2
93  1   0.097978   -17.713470089   -0.725831494    -8.238277889      0    0    0   #     C        Sp2
94  1  -0.035055   -17.666631168   -1.858809049    -7.491043599      0    0    0   #     C        Sp2
95  1   0.003460   18.336687170    -2.287618906    -7.419389602     -1    0    0   #     C        Sp2
96  1   0.014294   16.156022611    -1.807210978    -8.544670524     -1    0    0   #     C        Sp2
97  1   0.119194   -15.405993497    0.240298288    -7.862950884      0    0    0   #     C        Sp2
98  3  -0.466762   -14.370010422    1.040044812    -8.293624391      0    0    0   #     O        Sp2
99  1   0.087717   -13.333177637    0.521454803    -7.136748959      0    0    0   #     C        Sp2
100 1  -0.023013   -13.942290411   -0.267426977    -6.175135209      0    0    0   #     C        Sp2
101 1  -0.029527   -15.255661454   -0.507652814    -6.671730917      0    0    0   #     C        Sp2
102 1   0.003041   -16.618294981    0.156901192    -8.527096580      0    0    0   #     C        Sp2
103 1   0.137852   15.501827446    -2.825284004    -7.874272367     -1    0    0   #     C        Sp2
104 1  -0.030421   14.097234490    -2.991181211    -8.185750659     -1    0    0   #     C        Sp2
105 1  -0.027310   13.496397771    -3.969971019    -7.357597863     -1    0    0   #     C        Sp2
106 1   0.109084   14.642506583    -4.364765439    -6.624497240     -1    0    0   #     C        Sp2
107 3  -0.461522   16.051242520    -3.723244375    -6.951852253     -1    0    0   #     O        Sp2
108 1  -0.044351   14.241758675    -5.210690718    -5.726732329     -1    0    0   #     C        Sp2
109 2   0.045303   -16.884517493   -2.355426150    -6.953929043      0    0    0   #     H   Terminal
110 2   0.103589   18.008316214    -3.155604042    -6.861271223     -1    0    0   #     H   Terminal
111 2   0.049505   15.592693142    -1.256072724    -9.240946109     -1    0    0   #     H   Terminal
112 2   0.099708   -13.437655173   -0.670621631    -5.290343608      0    0    0   #     H   Terminal
113 2   0.062539   -15.970105363   -1.098815143    -6.155401449      0    0    0   #     H   Terminal
114 2   0.089993   -16.859473128    0.825356337    -9.354445410      0    0    0   #     H   Terminal
115 2   0.040742   13.598323915    -2.431709688    -8.958052951     -1    0    0   #     H   Terminal
116 2   0.098348   12.479049813    -4.282729036    -7.206170087     -1    0    0   #     H   Terminal
117 2   0.033279   13.201686303    -5.512261949    -5.636005586     -1    0    0   #     H   Terminal
118 2   0.074568   14.931186141    -5.626222886    -4.990766766     -1    0    0   #     H   Terminal
119 1  -0.001423   13.206486011    -12.255012783   12.812087321      0   -1   -1   #     C        Sp1
120 3  -0.459383   14.624641424    -10.591514061   10.896416099      0   -1   -1   #     O        Sp3
121 1   0.153623   14.702367698    -9.860116954    12.029436168      0   -1   -1   #     C        Sp2
122 1  -0.024533   14.345622794    -10.088527690   13.331882593      0   -1   -1   #     C        Sp2
123 1  -0.031478   13.678850263    -11.283854123   13.732106953      0   -1   -1   #     C        Sp2
124 1  -0.027113   12.869108029    -13.190167314   11.879062640      0   -1   -1   #     C        Sp1
125 1  -0.009667   15.434282743    -8.624393537    12.126394373      0   -1   -1   #     C        Sp2
126 2   0.040522   14.525716644    -9.436853175    14.210222507      0   -1   -1   #     H   Terminal
127 2   0.062375   13.360985343    -11.349201371   14.745588683      0   -1   -1   #     H   Terminal
128 2   0.059059   12.170148279    -13.643206187   11.159021330      0   -1   -1   #     H   Terminal
129 2   0.052002   15.524811668    -8.067604979    13.032969671      0   -1   -1   #     H   Terminal
130 1   0.166701   -17.792663742   -10.084201737   11.536162654      0    0   -1   #     C        Sp2
131 3  -0.454003   -16.343404745   -9.764367849    11.336366770      0    0   -1   #     O        Sp2
132 1   0.116763   -16.181308512   -9.235577242    12.677817601      0    0   -1   #     C        Sp2
133 1  -0.027739   -17.405535237   -9.337454993    13.500188860      0    0   -1   #     C        Sp2
134 1  -0.032004   -18.444505836   -9.897870735    12.874947079      0    0   -1   #     C        Sp2
135 1   0.166976   18.625005586    -10.496162298   10.767513946     -1    0   -1   #     C        Sp2
136 1  -0.016828   -15.023735112   -8.713772567    13.178029485      0    0   -1   #     C        Sp1
137 2   0.098028   -17.431638160   -8.942041469    14.528312108      0    0   -1   #     H   Terminal
138 2   0.059436   17.911506605    -10.145575203   13.300364653     -1    0   -1   #     H   Terminal
139 2   0.088406   17.593103785    -10.632709767   11.116117743     -1    0   -1   #     H   Terminal
140 2   0.058360   -14.396104752   -8.270248010    13.916010513      0    0   -1   #     H   Terminal
141 1   0.106506   -13.730994604   -11.512039107   -18.746709944     1    1    0   #     C        Sp2
142 3  -0.447798   -13.691581143   -10.860514742   18.294283218      1    1   -1   #     O        Sp3
143 1   0.117379   -14.057982920   -12.368452884   17.737155910      1    1   -1   #     C        Sp2
144 1  -0.000483   -14.212614906   -13.507799630   18.674732799      1    1   -1   #     C        Sp2
145 1  -0.002271   -13.940622344   -12.956725274   -18.642490847     1    1    0   #     C        Sp2
146 1  -0.017414   -13.524644767   -10.900744118   -17.600767287     1    1    0   #     C        Sp1
147 1   0.019058   -14.164418564   -12.748402122   16.496503817      1    1   -1   #     C        Sp1
148 2   0.151545   -14.384260600   -14.546457792   18.342135024      1    1   -1   #     H   Terminal
149 2   0.111006   -13.879328975   -13.541430924   -17.737047467     1    1    0   #     H   Terminal
150 2   0.043683   -13.347675026   -10.603270934   -16.622303519     1    1    0   #     H   Terminal
151 2   0.076662   -14.232199737   -13.172703826   15.535046200      1    1   -1   #     H   Terminal
152 1   0.065597   -12.955301525   -2.765737754    -16.399394640     0    0    0   #     C        Sp3
153 1  -0.039292   -13.952187996   -3.704020866    -15.902631696     0    0    0   #     C        Sp2
154 1  -0.021615   -13.318393410   -4.235924532    -14.892879852     0    0    0   #     C        Sp2
155 1   0.144712   -11.818054109   -3.772630897    -14.911195553     0    0    0   #     C        Sp3
156 1   0.149124   -9.686303841    -4.162465868    -16.511916819     0    0    0   #     C        Sp2
157 3  -0.456800   -9.540956138    -2.975378366    -17.324077208     0    0    0   #     O        Sp2
158 1   0.135347   -10.803116329   -2.958320894    -17.999235177     0    0    0   #     C        Sp2
159 1  -0.016360   -11.957739586   -3.724159483    -17.351757039     0    0    0   #     C        Sp3
160 1   0.019479   -11.139069734   -4.465364447    -16.184656504     0    0    0   #     C        Sp3
161 1   0.019069   -10.988162258   -2.169906886    -19.035100950     0    0    0   #     C        Sp2
162 1  -0.013722   -13.490846314   -1.621686988    -17.284063042     0    0    0   #     C        Sp3
163 1   0.007404   -11.091639549   -4.331522296    -13.672591763     0    0    0   #     C        Sp3
164 1   0.011863   -8.678210917    -4.877050737    -16.008788899     0    0    0   #     C        Sp2
165 3  -0.448338   -11.828856634   -2.421390435    -15.150384905     0    0    0   #     O        Sp2
166 1   0.013403   -14.870518032   -2.392043692    17.499103898      0    0   -1   #     C        Sp1
167 1  -0.036135   -14.028505595   -3.468761440    17.874901797      0    0   -1   #     C        Sp2
168 1  -0.021526   -12.813801227   -3.292121202    18.583931833      0    0   -1   #     C        Sp2
169 1   0.131063   -12.118698874   -2.129799852    18.674344864      0    0   -1   #     C        Sp2
170 3  -0.471809   -12.322496115   -0.971144045    17.918088446      0    0   -1   #     O        Sp3
171 3  -0.515389   -10.094497669   -6.659543956    -15.062711146     0    0    0   #     O        Sp2
172 1   0.112272   -8.756105408    -6.100884617    -15.249721579     0    0    0   #     C        Sp2
173 1  -0.012488   -7.645260136    -6.660248333    -14.667694398     0    0    0   #     C        Sp2
174 1  -0.014788   -8.129006372    -7.806119370    -14.059076755     0    0    0   #     C        Sp2
175 1   0.106548   -9.590349952    -7.853690897    -14.265107958     0    0    0   #     C        Sp2
176 3  -0.468732   -14.961115131    0.443511470    -17.052999397     0    0    0   #     O        Sp2
177 1   0.104421   -15.165229631    1.328689296    -15.747140962     0    0    0   #     C        Sp2
178 1  -0.015226   -14.467620890    0.704946836    -14.642391984     0    0    0   #     C        Sp2
179 1   0.005153   -13.888343558   -0.457670875    -15.133141857     0    0    0   #     C        Sp2
180 1   0.145263   -14.205239988   -0.534811537    -16.442879072     0    0    0   #     C        Sp2
181 1   0.152148   -12.035714424   -4.283887345    -12.482061651     0    0    0   #     C        Sp2
182 1  -0.031505   -12.879498852   -5.417634319    -12.289120095     0    0    0   #     C        Sp2
183 1  -0.041281   -13.852290030   -5.007301304    -11.482617481     0    0    0   #     C        Sp2
184 1   0.058622   -13.695110584   -3.573687898    -11.055931021     0    0    0   #     C        Sp3
185 3  -0.443160   -12.300327353   -3.142188671    -11.952300719     0    0    0   #     O        Sp2
186 1  -0.013039   -15.866236568    2.441100311    -15.680962706     0    0    0   #     C        Sp2
187 1  -0.052155   -10.189850112   -8.856967349    -13.778680485     0    0    0   #     C        Sp2
188 2   0.095303   -14.984713160   -3.905735529    -16.202626774     0    0    0   #     H   Terminal
189 2   0.043584   -13.648705588   -5.029761286    -14.254857263     0    0    0   #     H   Terminal
190 2   0.032404   -12.610628414   -4.318627225    -17.943545001     0    0    0   #     H   Terminal
191 2   0.088815   -11.215393031   -5.548030775    -16.161785866     0    0    0   #     H   Terminal
192 2   0.103449   -10.100745162   -1.580930326    -19.131475320     0    0    0   #     H   Terminal
193 2   0.098553   -12.659759463   -1.204843598    -17.788561726     0    0    0   #     H   Terminal
194 2   0.055845   -14.051736236   -1.883836188    -18.183284650     0    0    0   #     H   Terminal
195 2   0.102552   -10.714983904   -5.395012859    -13.924030656     0    0    0   #     H   Terminal
196 2   0.126980   -10.179467877   -3.746575049    -13.389419189     0    0    0   #     H   Terminal
197 2   0.086381   -7.759385023    -4.434636255    -16.363577518     0    0    0   #     H   Terminal
198 2   0.046627   -14.423283204   -4.394560737    17.707298434      0    0   -1   #     H   Terminal
199 2   0.063727   -12.270190185   -4.014890523    19.086445799      0    0   -1   #     H   Terminal
200 2   0.105930   -6.635090728    -6.317696219    -14.551580952     0    0    0   #     H   Terminal
201 2   0.091780   -7.617535423    -8.454194142    -13.330476351     0    0    0   #     H   Terminal
202 2   0.051803   -14.484807656    1.091906964    -13.646142925     0    0    0   #     H   Terminal
203 2   0.123452   -13.254939188   -1.169659889    -14.563115346     0    0    0   #     H   Terminal
204 2   0.056827   -12.786296251   -6.414173930    -12.681881650     0    0    0   #     H   Terminal
205 2   0.044219   -14.643481628   -5.599127254    -11.109435002     0    0    0   #     H   Terminal
206 2   0.060091   -15.839314212    2.955980665    -14.743982486     0    0    0   #     H   Terminal
207 2   0.095944   -16.455177149    2.733318238    -16.532917004     0    0    0   #     H   Terminal
208 2   0.051556   -9.703292848    -9.688029433    -13.334785557     0    0    0   #     H   Terminal
209 2   0.044268   -11.202585081   -9.046584980    -13.902949594     0    0    0   #     H   Terminal
210 1   0.092144   -18.322665686   -4.503270418    -13.549915862     0    0    0   #     C        Sp3
211 1  -0.011192   -17.668923198   -5.826246898    -13.612053160     0    0    0   #     C        Sp2
212 1  -0.008434   18.591445947    -6.584634788    -13.582574063    -1    0    0   #     C        Sp2
213 1   0.105020   17.302180993    -5.753894324    -13.473977741    -1    0    0   #     C        Sp3
214 1   0.153750   16.392566294    -4.569197753    -11.186967162    -1    0    0   #     C        Sp2
215 3  -0.506077   16.701853064    -3.222992027    -11.044303022    -1    0    0   #     O        Sp2
216 1   0.120405   18.048077810    -3.123494161    -11.559392706    -1    0    0   #     C        Sp2
217 1  -0.011541   -18.649230490   -4.414641516    -12.049113998     0    0    0   #     C        Sp3
218 1   0.018211   17.406915746    -5.394560207    -11.929729819    -1    0    0   #     C        Sp3
219 1   0.004970   -18.533393644   -2.017562052    -11.529611397     0    0    0   #     C        Sp2
220 1  -0.021179   -17.260664616   -3.393729956    -14.120442223     0    0    0   #     C        Sp3
221 1   0.002666   16.051788956    -6.496783175    -13.817638341    -1    0    0   #     C        Sp3
222 1   0.015008   15.254331584    -5.106293534    -10.637499615    -1    0    0   #     C        Sp2
223 3  -0.507386   17.518577167    -4.541686185    -14.253403348    -1    0    0   #     O        Sp2
224 1   0.121318   -14.935061447   -1.537852453    -12.223799842     0    0    0   #     C        Sp2
225 1  -0.000253   -14.890628833   -2.737957701    -11.453421709     0    0    0   #     C        Sp2
226 1  -0.040935   -16.286465245   -2.912355396    -11.164751031     0    0    0   #     C        Sp2
227 1   0.126636   -17.068486359   -1.949569671    -11.763275716     0    0    0   #     C        Sp2
228 3  -0.474039   -16.456354468   -0.974432300    -12.503501453     0    0    0   #     O        Sp2
229 3  -0.490502   15.714623623    -7.555737387    -11.074516203    -1    0    0   #     O        Sp2
230 1   0.138345   14.920661007    -6.502458066    -10.638998698    -1    0    0   #     C        Sp2
231 1  -0.024349   13.751690829    -6.828275467    -9.926769776     -1    0    0   #     C        Sp2
232 1  -0.048984   13.463559615    -8.205265471    -9.954880735     -1    0    0   #     C        Sp2
233 1   0.092692   14.627778481    -8.632773401    -10.696786260    -1    0    0   #     C        Sp2
234 3  -0.466372   -16.861664572   -4.561370221    -16.351386932     0    0    0   #     O        Sp2
235 1   0.089882   -16.598505609   -3.815278620    -17.768951988     0    0    0   #     C        Sp2
236 1  -0.010767   -16.880289235   -2.406547423    -17.593962038     0    0    0   #     C        Sp2
237 1  -0.015626   -17.178906673   -2.174283885    -16.262496621     0    0    0   #     C        Sp2
238 1   0.134223   -17.069126327   -3.405656554    -15.649323685     0    0    0   #     C        Sp2
239 1   0.188718   14.831369477    -5.495739366    -14.057840026    -1    0    0   #     C        Sp2
240 1  -0.000043   15.067664957    -4.080694566    -13.968772492    -1    0    0   #     C        Sp2
241 1  -0.029268   14.038227753    -3.168731411    -14.180379351    -1    0    0   #     C        Sp2
242 1   0.127722   12.798711428    -3.673678313    -14.628456740    -1    0    0   #     C        Sp2
243 3  -0.488905   13.852511986    -6.118081309    -14.267553041    -1    0    0   #     O        Sp2
244 1  -0.029633   -16.260474166   -4.357283803    -18.899243976     0    0    0   #     C        Sp2
245 1  -0.062406   14.598035265    -9.887882209    -10.816677699    -1    0    0   #     C        Sp2
246 2   0.063981   -16.617154014   -6.115001406    -13.644167034     0    0    0   #     H   Terminal
247 2   0.099537   18.561536997    -7.676181453    -13.589928191    -1    0    0   #     H   Terminal
248 2   0.029109   -17.801714916   -4.666569424    -11.429525675     0    0    0   #     H   Terminal
249 2   0.099206   17.501210126    -6.305541154    -11.311729896    -1    0    0   #     H   Terminal
250 2   0.100960   18.152089307    -1.212241409    -11.223615661    -1    0    0   #     H   Terminal
251 2   0.077830   -17.590428889   -2.419595344    -13.845917655     0    0    0   #     H   Terminal
252 2   0.047815   -16.331274985   -3.466543634    -13.568053026     0    0    0   #     H   Terminal
253 2   0.057253   16.167486481    -7.204398306    -14.605060377    -1    0    0   #     H   Terminal
254 2   0.114138   15.757731388    -7.218102443    -12.980673962    -1    0    0   #     H   Terminal
255 2   0.068484   14.657607564    -4.317557592    -10.091355623    -1    0    0   #     H   Terminal
256 2   0.077349   -13.457689581   -3.554073946    -10.002366880     0    0    0   #     H   Terminal
257 2   0.027293   -16.645816452   -3.595688981    -10.432631819     0    0    0   #     H   Terminal
258 2   0.041455   13.154095933    -6.138099305    -9.368037120     -1    0    0   #     H   Terminal
259 2   0.029110   12.653843194    -8.743286249    -9.473507508     -1    0    0   #     H   Terminal
260 2   0.083410   -16.828301195   -1.643220034    -18.369558415     0    0    0   #     H   Terminal
261 2   0.073898   -17.351359487   -1.224570217    -15.781422755     0    0    0   #     H   Terminal
262 2   0.126027   15.997403497    -3.750235454    -13.586644492    -1    0    0   #     H   Terminal
263 2   0.062988   14.396552922    -2.189464838    -14.281181210    -1    0    0   #     H   Terminal
264 2   0.080139   -16.195341165   -3.794276748    18.790721897      0    0   -1   #     H   Terminal
265 2   0.074129   -16.137606768   -5.369887391    -18.939150187     0    0    0   #     H   Terminal
266 2   0.028472   13.855793066    -10.455537176   -10.365283649    -1    0    0   #     H   Terminal
267 2   0.040457   15.357488188    -10.475471369   -11.286895840    -1    0    0   #     H   Terminal
268 1   0.113344   -10.179687415    1.419009747    -13.901936977     0    0    0   #     C        Sp3
269 1  -0.011427   -11.396584074    1.065288674    -13.119169026     0    0    0   #     C        Sp2
270 1  -0.016463   -11.333952929    0.067617176    -12.145260411     0    0    0   #     C        Sp2
271 1   0.000805   -10.172037575   -0.757320968    -12.231775377     0    0    0   #     C        Sp2
272 1   0.129868   -7.778011562    -0.786559953    -13.459949045     0    0    0   #     C        Sp2
273 3  -0.470569   -7.321525279     0.194450397    -14.433040675     0    0    0   #     O        Sp2
274 1   0.162637   -8.385495338     0.331809254    -15.346568780     0    0    0   #     C        Sp2
275 1   0.017572   -9.695963319     0.167752975    -14.603565706     0    0    0   #     C        Sp3
276 1   0.002183   -9.313804892    -0.929429544    -13.449375892     0    0    0   #     C        Sp3
277 1   0.024667   -8.265142870     0.563014618    -16.674497770     0    0    0   #     C        Sp2
278 1  -0.000147   -10.506037123    2.404981137    -15.113167699     0    0    0   #     C        Sp3
279 1   0.002796   -10.158248498   -1.433791060    -11.023546699     0    0    0   #     C        Sp2
280 1  -0.000310   -7.002658290    -1.502759310    -12.574657093     0    0    0   #     C        Sp2
281 3  -0.584378   -9.030912007     2.024998934    -13.045991711     0    0    0   #     O        Sp3
282 1   0.127033   -11.318446614    1.154655545    -18.570667080     0    0    0   #     C        Sp2
283 1  -0.016000   -10.239397364    1.290904449    19.072012176      0    0   -1   #     C        Sp2
284 1  -0.026833   -9.053024548     1.089782013    -18.893403047     0    0    0   #     C        Sp2
285 1   0.122309   -9.373158752     0.775022088    -17.590975405     0    0    0   #     C        Sp2
286 3  -0.481804   -10.808806988    0.696756623    -17.268009499     0    0    0   #     O        Sp2