LAMMPS data file via write_data, version 29 Oct 2020, timestep = 100 > cluster_extract v3.0 / 24 May 2023

2557 atoms

3 atom types

-14.73604210119969 14.73604210119969 xlo xhi
-14.159441952277698 14.159441952277698 ylo yhi
-15.276427342820213 15.276427342820213 zlo zhi

Masses

 1   12.00000  #  C    
 2   1.00800   #  H    
 3   15.99900  #  O    

Atoms # charge

 1  1   0.004717   -14.315491280   -13.558638360   -14.065243746     0    1    0   #     C        Sp1
 2  1   0.016666   -14.000818866   -12.289553536   -14.653610545     0    1    0   #     C        Sp2
 3  1   0.106075   -13.537027459   -10.073893584   -11.175565662     1    0   -1   #     C        Sp3
 4  1   0.000263   -12.824313796   -10.112670303   -14.779014843     0    1    0   #     C        Sp2
 5  1  -0.020283   -12.706519348   -11.428567824   -14.059266875     1    1    0   #     C        Sp3
 6  2   0.041450   -12.661088950   -11.370139832   -12.943966664     0    1    0   #     H   Terminal
 7  1   0.002064   -11.413200151   -12.009641608   -14.669771683     0    1    0   #     C        Sp2
 8  1  -0.024125   -10.496709504   -12.557969041   -13.576175539     0    1    0   #     C        Sp2
 9  2   0.018756   -10.751781491   -12.602136296   -12.504862556     0    1    0   #     H   Terminal
10  2   0.016763   -10.453622935   -13.300577873   -10.685345612     0    1    0   #     H   Terminal
11  1  -0.016469   -9.249445690    -13.227420632   -13.820101282     0    0    0   #     C        Sp2
12  2   0.042364   -8.724593094    -13.244289935   -14.883707047     0    1    0   #     H   Terminal
13  1  -0.010940   -9.089076362    -11.006265100   -10.890329024     0    1    0   #     C        Sp2
14  2   0.034301   -9.011345517    -10.762576469   -12.013359504     0    1    0   #     H   Terminal
15  1  -0.000778   -8.276190071    -13.985149257   -13.237005848     0    1    0   #     C        Sp2
16  2   0.049043   -7.288100428    -14.104279467   -13.447956996     0    1    0   #     H   Terminal
17  2   0.013225   -6.123974902    -13.697093752   -11.886460550     0    0    0   #     H   Terminal
18  1   0.000986   -5.623219820    -10.372108759   -14.091745332     0    0   -1   #     C        Sp1
19  2   0.017716   -5.595102597    -11.557710401   -12.442790906     0    0   -1   #     H   Terminal
20  1  -0.010818   -4.940366078    -10.733152850   -13.060546813     0    0   -1   #     C        Sp2
21  2   0.018128   -4.368038303    13.913905661    -11.548340793     1    0    0   #     H   Terminal
22  1   0.002231   -3.732659787    -10.144677334   -12.361919609     0    0   -1   #     C        Sp2
23  1  -0.011208   -3.294667655    -11.073481651   -11.528910711     0    1    1   #     C        Sp1
24  1  -0.024799    0.511154656    -10.550900965   -13.337562847     0    0    0   #     C        Sp2
25  2   0.017289    1.278559657    -11.040564449   -12.773608698     0    0    0   #     H   Terminal
26  1  -0.037275    2.672149200    -13.881200975   -14.803978457     0    1    0   #     C        Sp2
27  1  -0.004190    2.819186117    -13.829718877   -11.025710276     0    1    0   #     C        Sp1
28  1  -0.010929    3.504486452    -10.636489437   -14.137431799     0    0    0   #     C        Sp1
29  1   0.018414    4.074637122    -10.369706213   -12.985271410    -1    1    0   #     C        Sp3
30  2   0.022044    5.114564448    -12.773981994   -13.277788652    -1    0    0   #     H   Terminal
31  1  -0.025221    4.671783079    -11.921082191   -12.596434087     0    1    0   #     C        Sp2
32  1  -0.002575    5.213589134    -12.456765449   -11.555415283    -1    0   -1   #     C        Sp1
33  1   0.006138    8.595773849    -10.173479151   -11.274690117    -1    0   -1   #     C        Sp2
34  1  -0.003796    8.585639326    -13.511826599   -12.081387805    -1    0   -1   #     C        Sp2
35  1  -0.023107    8.866418768    -12.559232628   -13.438159223    -1    0   -1   #     C        Sp2
36  1   0.011027    9.219801357    -11.335753839   -13.191730521     0    0   -1   #     C        Sp1
37  1  -0.007892    9.526207615    -13.830470438   -11.178176414     0    1    0   #     C        Sp1
38  2   0.024400    9.371265305    -13.144755593   -14.144288282    -1    0   -1   #     H   Terminal
39  1   0.006047   12.074652501    -14.124185575   -13.863186391    -1    1    0   #     C        Sp2
40  1  -0.005328   12.316725625    -12.930830798   -12.921343010     0    0    0   #     C        Sp2
41  1   0.018602   12.324869873    -13.673542368   -11.658602880     0    1    0   #     C        Sp2
42  1   0.079859   13.216224810    -11.838453431   -12.847126049    -1    0   -1   #     C        Sp1
43  1  -0.072860   13.831971453    -10.790983973   -12.789326219     0    0    0   #     C        Sp3
44  1   0.191700   14.422853255    -10.373076645   -11.162244393     0    0   -1   #     C        Sp3
45  1  -0.029389   -12.274965989   -9.578185606    -11.260991076     1    1    0   #     C        Sp2
46  1  -0.012581   -12.210166797   -8.770044411    -14.498694928     0    1    0   #     C        Sp3
47  1  -0.020076   -12.337130780   -8.059082016    -13.250343921     0    0    0   #     C        Sp3
48  2   0.021552   -11.890844816   -6.889232193    -13.151474569     0    1    0   #     H   Terminal
49  1   0.019338   -11.834447749   -8.207338484    -11.817027514     0    0    0   #     C        Sp2
50  1  -0.003557   -11.979048098   -7.158740461    -10.883404351     1    0    0   #     C        Sp2
51  1   0.031157   -5.932447663    -9.726008760    -15.060606869     0    0    0   #     C        Sp1
52  3  -0.505810   -4.797443557    -6.907583485    -15.105382994     0    1    0   #     O        Sp2
53  1   0.253172   -3.433546515    -7.078513386    -14.563200110     0    0    0   #     C        Sp2
54  1   0.003614   -3.051100798    -8.928439454    -12.409719862     0    0   -1   #     C        Sp2
55  1   0.007324   -2.952947080    -8.468712727    -10.980884107     0    1    0   #     C        Sp2
56  1  -0.050454   -2.838075993    -8.198649246    -15.041380230     0    1    0   #     C        Sp2
57  1  -0.067065   -2.657851217    -6.156971954    -13.823258902     0    0    0   #     C        Sp2
58  1   0.003755   -1.651531079    -8.834393722    -14.505781993     0    0   -1   #     C        Sp2
59  1  -0.002826   -1.894999225    -9.297695850    -13.119129157     0    0   -1   #     C        Sp2
60  2   0.019152   -1.520198311    -6.455209107    -13.995787009     0    0    0   #     H   Terminal
61  1  -0.007809   -0.671877951    -9.585284341    -11.343532231     0    0   -1   #     C        Sp2
62  1  -0.000888   -0.770432057    -10.029282225   -12.628916006     0    0   -1   #     C        Sp2
63  2   0.037297   -0.100905849    -5.959208809    -12.741562595     0    1    0   #     H   Terminal
64  1  -0.014317    0.601114294    -9.811385350    -14.602428610     0    0    0   #     C        Sp2
65  1   0.012248    1.619384473    -6.968168984    -13.248246000     0    1    0   #     C        Sp1
66  1  -0.030190    2.333292221    -8.761308584    -11.952191916     0    1    0   #     C        Sp2
67  1   0.041137    2.338804906    -8.034335532    -13.177695209     0    1    0   #     C        Sp3
68  2   0.012670    1.924675202    -8.583499601    -13.942894660     0    0    1   #     H   Terminal
69  1  -0.004462    3.266428404    -9.825974218    -11.770339993     0    1    0   #     C        Sp2
70  3  -0.466352    4.977149623    -7.489091863    -12.407384868    -1    0   -1   #     O        Sp2
71  2   0.002837    5.516029207    -8.042215855    -14.541507681     0    0    1   #     H   Terminal
72  1   0.279156    5.810410652    -8.353550011    -11.592181848    -1    0   -1   #     C        Sp2
73  1   0.157768    5.955687961    -7.408849329    -13.808257574    -1    0   -1   #     C        Sp3
74  1  -0.026843    6.848153602    -9.007642173    -12.244484809    -1    0    0   #     C        Sp2
75  1   0.035946    7.093527604    -8.357708036    -13.458432605     0    0   -1   #     C        Sp2
76  1   0.006428    7.496916072    -9.649750666    -11.128413912    -1    0    0   #     C        Sp2
77  3  -0.478006    7.837309782    -6.514333614    -12.016549388     1    0    1   #     O        Sp2
78  1   0.010949    8.327757442    -8.244265577    -14.152027998     0    0   -1   #     C        Sp2
79  1   0.001167    8.892320446    -7.264676307    -15.092819771     0    0   -1   #     C        Sp2
80  1   0.008465    9.381511264    -10.026842583   -12.526845587    -1    0   -1   #     C        Sp2
81  1   0.008803    9.663187668    -6.134106818    -14.472621869     0    0   -1   #     C        Sp1
82  2   0.067696    9.759251609    -7.723430508    -12.604236256    -1    0   -1   #     H   Terminal
83  1  -0.028425    9.514027556    -8.792273293    -13.266094146     0    0    0   #     C        Sp3
84  2   0.070429   10.518823255    -9.223669763    -13.828324219    -1    0   -1   #     H   Terminal
85  2   0.027181   11.642867669    -6.771454438    -11.599696379    -1    0    0   #     H   Terminal
86  1  -0.023915   12.307157071    -6.155454159    -11.772843723    -1    0    0   #     C        Sp2
87  3  -0.508866   12.391757064    -10.015435474   -14.714714693     0    0    0   #     O        Sp3
88  1  -0.002112   12.751642710    -6.045263877    -13.183567455     0    0    0   #     C        Sp2
89  1   0.020178   12.768555861    -7.368863004    -13.721883953     0    0    0   #     C        Sp2
90  1  -0.049059   12.837943577    -8.516566763    -12.694887766    -1    0    0   #     C        Sp2
91  2   0.010515   12.910580438    -8.325171682    -11.578284325    -1    0    0   #     H   Terminal
92  1   0.024225   13.210593344    -7.359107994    -15.063344500     0    0    0   #     C        Sp2
93  1   0.201441   13.310617651    -9.735799129    -13.401713410    -1    0    0   #     C        Sp2
94  1  -0.009642   -14.231860300   -3.573430741    -14.404868324     0    0    0   #     C        Sp2
95  2   0.023465   -14.345693163   -2.040509761    -12.754756915     0    0    0   #     H   Terminal
96  1  -0.000960   -14.134492649   -4.205268501    -13.042444045     0    0    0   #     C        Sp2
97  2   0.018822   -13.152757655   -5.733722917    -12.915245245     0    0   -1   #     H   Terminal
98  2   0.021241   -12.960910508   -1.966579818    -15.270917733     0    0    0   #     H   Terminal
99  1  -0.036631   -12.596783592   -4.739892340    -13.012632858     0    0    0   #     C        Sp3
100 1  -0.004637   -12.319613334   -4.609481520    -11.560172276     0    0    0   #     C        Sp2
101 2   0.025394   -11.628885670   -4.422503239    -13.489973792     1    0   -1   #     H   Terminal
102 1   0.003546   -11.702672415   -5.640617501    -10.942158860     0    0    0   #     C        Sp2
103 1  -0.008739   -10.239710166   -2.476576917    -12.719925953     0    0    0   #     C        Sp1
104 1  -0.001338   -9.208548480    -3.285819006    -13.213084622     1    0    0   #     C        Sp2
105 1  -0.013259   -8.917345501    -3.469213452    -14.796432795     1    0    0   #     C        Sp3
106 1   0.007592   -8.169524680    -3.986684167    -12.435580914     1    0    0   #     C        Sp2
107 2   0.035497   -8.200907441    -4.234950411    -15.075541042     1    0    0   #     H   Terminal
108 1   0.013457   -6.857557046    -3.601140291    -12.900856945     1    0    0   #     C        Sp2
109 1  -0.021517   -5.583662914    -2.862341267    -12.637676261     1    0    0   #     C        Sp3
110 2   0.025344   -4.872555534    -3.368478004    -11.910146592     1    0    0   #     H   Terminal
111 2   0.058202   -4.129637804    -4.864635791    -13.944361903     1    0    0   #     H   Terminal
112 1  -0.005514   -2.953525780    -4.865443963    -13.561003641     0    0    0   #     C        Sp2
113 1   0.005201   -2.722914794    -2.263549712    -13.221925482     0    0    0   #     C        Sp2
114 1   0.014940   -2.189752766    -3.752148397    -12.996143921     0    0    0   #     C        Sp2
115 1   0.016767   -0.814012975    -4.179526224    -13.191945529     0    1    0   #     C        Sp1
116 1   0.023151    0.597060262    -4.428983689    -13.176308876     0    1    0   #     C        Sp2
117 1  -0.024608    0.798739064    -5.874808147    -13.431118095     0    1    0   #     C        Sp3
118 1   0.010154    1.189276663    -2.358685300    -14.158829489     0    0    0   #     C        Sp2
119 1  -0.005476    1.626241538    -3.685546872    -13.745238680     0    1    0   #     C        Sp3
120 2   0.059125    2.411270045    -5.502438156    -11.646243391     0    0   -1   #     H   Terminal
121 1   0.022192    2.592919286    -3.571601492    -12.680561494     0    1    0   #     C        Sp2
122 1   0.003308    2.997533576    -4.566482343    -11.693212381     0    0    0   #     C        Sp2
123 1  -0.000344    3.708948114    -2.644486270    -13.174109947     0    0    1   #     C        Sp1
124 1  -0.006753    5.258748444    -5.518137399    15.224953259     -1    0   -2   #     C        Sp2
125 1  -0.024259    5.528295955    -2.306294612    -11.237844432     0    0    0   #     C        Sp2
126 1   0.041534    6.151506325    -5.917785740    -14.168435442    -1    0   -1   #     C        Sp2
127 2   0.017335    7.170936635    -4.008342579    -13.920067818     0    0    0   #     H   Terminal
128 1  -0.068516    6.903502730    -5.103229668    -13.741217792     0    0    0   #     C        Sp2
129 1   0.311125    7.834126507    -5.343640520    -12.613879549     1    0    1   #     C        Sp2
130 2   0.022952    9.214764606    -3.341214905    -12.581489955     0    0    0   #     H   Terminal
131 1  -0.008048    8.390644067    -2.249933776    14.980895420      0    0   -1   #     C        Sp1
132 1  -0.076299    9.080735466    -4.467251482    -12.490750609     0    0    0   #     C        Sp3
133 2   0.037249    9.561381086    -4.418341946    -11.323805765     0    1    0   #     H   Terminal
134 2   0.019547   10.679139138    -4.328077232    -14.230047222     0    1    0   #     H   Terminal
135 1  -0.012070    9.787728157    -4.880712691    -13.836953555     0    1    0   #     C        Sp2
136 2   0.015502   12.215138028    -5.144721341    15.272976583      0    1   -1   #     H   Terminal
137 1  -0.020966   12.583168876    -4.842204887    -14.178798331     0    1    0   #     C        Sp2
138 1  -0.004144   12.652257206    -2.373337564    -14.682874648    -1    0    0   #     C        Sp1
139 1   0.008754   13.220019908    -4.006243699    -13.377184357     0    1    0   #     C        Sp2
140 1  -0.007383   13.790113346    -3.025657671    -14.312354783    -1    0    0   #     C        Sp2
141 2   0.022792   13.593796546    -2.546222936    -11.487248878    -1    0    0   #     H   Terminal
142 1  -0.005980   14.274757828    -4.391236632    -12.153775119    -1    0    0   #     C        Sp2
143 2   0.021048   -14.029645458   -0.265885779    -15.119859155     1    0    0   #     H   Terminal
144 1  -0.018914   -13.831982208   -1.647594250    -11.889690429     0    0    0   #     C        Sp3
145 1  -0.005450   -12.539289003   -1.114512956    -12.778299266     0    0    0   #     C        Sp2
146 1  -0.006496   -12.186644986   -0.615150138    -14.139480528     2    0   -1   #     C        Sp2
147 1  -0.001291   -11.007771875   -1.409849850    -12.216154020     0    0    0   #     C        Sp2
148 1   0.004477   -11.150853159    0.469506653    -13.751877695     1    0    0   #     C        Sp2
149 1  -0.038407   -10.131492170   -0.229915953    -12.393358573     1    0    0   #     C        Sp3
150 2   0.019726   -10.617199473    0.342727839    -11.576354299     1    0    0   #     H   Terminal
151 1  -0.006253   -10.047785361    0.840687741    -14.677823330     1    0    0   #     C        Sp2
152 2   0.021595   -9.120720836     0.017387647    -12.505785621     1    0    0   #     H   Terminal
153 1  -0.001372   -8.515414354    -1.841520281    -14.911559175     1    0    0   #     C        Sp2
154 2   0.018859   -7.235376180    -0.516954057    -12.555320335     0    0    0   #     H   Terminal
155 1  -0.021737   -6.522362733    -0.464321929    -11.822035795     0    0    0   #     C        Sp2
156 1  -0.014289   -6.561250338     0.743833356    -10.932068079     0    0    0   #     C        Sp3
157 1   0.000304   -5.681289268    -1.561679227    -11.626653114     0    0    0   #     C        Sp2
158 1  -0.006911   -4.209198934     1.874062478    -14.935988876     0    0    1   #     C        Sp2
159 1  -0.000830   -3.196470536    -1.728096205    -14.373084131     1    0   -1   #     C        Sp2
160 1   0.002427   -2.971206567    -0.186096385    -14.189630544     1    0   -1   #     C        Sp2
161 1   0.018518   -3.005641959    -1.249715425    -12.268965077     0    0    0   #     C        Sp2
162 1  -0.001929   -3.082291834     0.107164997    -12.819307142     0    0    0   #     C        Sp2
163 1   0.007338   -2.936798109     1.547301820    -12.256995507     0    0    0   #     C        Sp2
164 2   0.048826    0.683210818     0.035145791    -11.457388546     0    0    0   #     H   Terminal
165 2   0.022105    0.277489732     1.724921461    -12.386504487     0    0    0   #     H   Terminal
166 1  -0.013549    0.798728621     1.236352748    -13.305106821     0    0    0   #     C        Sp2
167 1   0.003941    1.034024816     1.790706977    -14.220838011     0    0    0   #     C        Sp1
168 1   0.002707    1.821852725    -1.332187222    -15.085115416     0    0    1   #     C        Sp2
169 2   0.018223    3.363851054    -0.746847320    -11.354755376     1    0    0   #     H   Terminal
170 1  -0.020805    2.972901080    -0.408277988    -15.120799931     0    0    1   #     C        Sp2
171 1   0.004897    4.168719645    -1.155015825    -15.126754177     0    0    1   #     C        Sp2
172 2   0.016108    4.728566071     1.719796635    -11.131293794     0    0    0   #     H   Terminal
173 1  -0.020034    4.720270825    -2.026191925    -13.936186490     0    0    1   #     C        Sp2
174 2   0.016167    4.456517264    -1.872529290    -11.645018845     0    0    0   #     H   Terminal
175 2   0.019079    5.514109802    -1.788003519    -13.264518941     0    0    1   #     H   Terminal
176 2   0.019085    6.405480045     0.690664536    -14.013700303     0    0    0   #     H   Terminal
177 1  -0.018835    6.724544607     1.626114899    -14.148700960     0    0    0   #     C        Sp2
178 1  -0.011707    6.891443073    -0.399891161    -11.435053039     0    0    0   #     C        Sp1
179 1  -0.012151    7.112818011     0.697118825    -12.156669978     0    0    0   #     C        Sp1
180 1   0.002585    7.434449339     1.850354432    -12.943877405     0    0    0   #     C        Sp2
181 1  -0.021230    9.298877663    -1.399220333    -15.200869885     0    0    0   #     C        Sp2
182 2   0.019134   10.039605987    -0.412363226    -11.814135421    -1    0    0   #     H   Terminal
183 1   0.000698   10.254766167    -1.506518875    -14.009904817     0    0    0   #     C        Sp2
184 1  -0.016176   10.736173472    -0.838861339    -12.772009036    -1    0    0   #     C        Sp2
185 1  -0.002769   11.474874265    -1.714836135    -14.872019091     0    0    0   #     C        Sp2
186 1   0.004391   11.836778417    -1.237038655    -12.118571614    -1    0    0   #     C        Sp1
187 1  -0.018130   13.143894436    -1.658719595    -11.908018359     0    0    0   #     C        Sp2
188 1  -0.002524   14.404261871    -0.907460236    -11.340317282    -1    0    0   #     C        Sp2
189 1  -0.030660   14.516960502     0.287925846    -14.776382632     0    0    0   #     C        Sp3
190 2   0.025831   14.413364605     0.222885391    -13.702583847     0    0    0   #     H   Terminal
191 1   0.008026   -14.209118859    5.130202390    -12.088031736     0   -1    0   #     C        Sp2
192 1   0.003654   -14.143141060    5.346274391    -14.423001734     0   -1    0   #     C        Sp2
193 1  -0.000975   -13.896627664    2.283630598    15.182935932      1    0    0   #     C        Sp1
194 1  -0.005726   -12.824981650    2.917625517    -14.791153713     1    0    1   #     C        Sp2
195 1  -0.009928   -12.729248233    5.277204960    -11.861653651     0   -1    0   #     C        Sp3
196 2   0.019062   -12.359905620    4.660488089    -12.866649715     0   -1    0   #     H   Terminal
197 2   0.022688   -11.587276706    2.561946412    -11.163971683     1    0    0   #     H   Terminal
198 1  -0.004381   -11.936135199    2.133197863    -13.518852785     1    0    1   #     C        Sp3
199 1  -0.003902   -11.709354952    5.911644222    -14.824233492     1   -1    0   #     C        Sp2
200 1  -0.014168   -11.696951740    5.150443572    -10.827202156     1    0    0   #     C        Sp3
201 1  -0.020514   -11.200896136    3.546984016    -11.221124754     1    0    0   #     C        Sp2
202 2   0.020451   -10.968032132    4.119184770    -13.431979981     1    0    1   #     H   Terminal
203 1  -0.017761   -10.792807046    3.028094902    -13.569191882     1    0    0   #     C        Sp2
204 1   0.002448   -9.589699347     2.408896421    -14.298989769     1    0    0   #     C        Sp2
205 1  -0.001949   -8.270466104     2.259307928    -14.388517956     0    0    0   #     C        Sp1
206 1  -0.006578   -7.880737179     5.830563597    -13.851982560     1    0    0   #     C        Sp1
207 1   0.005283   -7.493423413     3.044380374    -11.527141251     0    0    0   #     C        Sp2
208 1  -0.000427   -7.396667612     4.511870943    -13.706439413     1    0    0   #     C        Sp2
209 1  -0.002569   -6.840317748     4.138892581    -12.307356693     1    0    0   #     C        Sp2
210 1   0.000821   -6.925648964     2.337986979    -14.497233818     1    0    0   #     C        Sp2
211 1  -0.007299   -6.574764686     3.779634685    -14.800779820     1    0    0   #     C        Sp2
212 1  -0.001126   -6.217565148     2.081070969    -11.334420845     0    0    0   #     C        Sp2
213 1   0.003529   -5.782854087     4.796828796    -12.085788315     0    0    0   #     C        Sp2
214 1  -0.000227   -4.920390856     2.821196328    -11.086072057     0    0    0   #     C        Sp2
215 1  -0.004325   -4.863890260     5.645430823    -12.821889579     0    0    0   #     C        Sp1
216 2   0.022697   -4.854943573     3.969862081    -15.054458681     0    0    0   #     H   Terminal
217 1  -0.013702   -3.797409016     4.423180786    -15.118991518     1    0    1   #     C        Sp3
218 1  -0.002926   -3.559877404     2.980588551    -14.247972697     0    0    0   #     C        Sp2
219 1  -0.018828   -3.541452623     2.051291523    -11.029317501     0    0    0   #     C        Sp3
220 1   0.003152   -3.195185078     5.808979945    -14.751090206     0    0    0   #     C        Sp2
221 1   0.001078   -2.811473731     2.673382757    -13.152242063     0    0    0   #     C        Sp2
222 1  -0.003406   -1.901740708     4.445192029    -11.148124647     0    0    0   #     C        Sp2
223 1   0.001306   -1.976558267     4.114218183    -12.545618138     0    0    0   #     C        Sp2
224 2   0.022434   -0.826348323     6.868690498    -12.813489071     0    0    0   #     H   Terminal
225 1  -0.004476   -0.956349334     4.578182964    -13.398645553     0    0    0   #     C        Sp2
226 1  -0.000325    0.413830504     4.493052230    -13.770537565     0    0    0   #     C        Sp2
227 1  -0.003311    0.768107297     3.942271420    -15.020297831    -1    0    0   #     C        Sp2
228 1  -0.022090    1.540350746     5.488311937    -13.327019634     1    0   -1   #     C        Sp2
229 1  -0.004894    1.714844052     4.838866200    -11.092349517     0    1    0   #     C        Sp1
230 1   0.001307    2.196937841     5.634462912    -12.070283937     1    0   -1   #     C        Sp2
231 2   0.023958    3.469459903     4.252032687    -13.862133519    -1   -1    0   #     H   Terminal
232 2   0.022553    4.385988397     3.801998066    -11.325178807     1    0    0   #     H   Terminal
233 1  -0.042459    3.983464152     4.498898720    -14.857473487     0    0    0   #     C        Sp2
234 1  -0.023757    4.927468602     4.220254015    -12.096297178     0    0    0   #     C        Sp2
235 1   0.000085    4.800607635     5.790853477    -12.074580413     0    0    0   #     C        Sp2
236 1  -0.010156    6.288447464     3.963911834    -11.927214398     0    0    0   #     C        Sp2
237 2   0.018133    6.444783666     3.101953288    -11.153392359     0   -1    0   #     H   Terminal
238 2   0.021943    7.334896507     3.424092779    15.053411448      0    0   -1   #     H   Terminal
239 1  -0.000271    7.179637423     4.332405733    -13.034094505     0    0    0   #     C        Sp2
240 1  -0.002039    7.766444564     5.589426573    -13.247420007     0    0    0   #     C        Sp2
241 1  -0.000775    8.115649156     3.191721660    -13.227128170     0    0    0   #     C        Sp2
242 1   0.002843    8.541714154     6.073472748    -14.537261228     0    0    0   #     C        Sp2
243 1   0.000172    9.296954640     3.161349787    -14.068862651    -1    1    1   #     C        Sp1
244 1  -0.006367    9.960080128     5.918588240    -14.829279456     0    0    0   #     C        Sp2
245 1   0.001980   10.427050755     3.320320878    -14.716829789    -1   -1    0   #     C        Sp2
246 1  -0.000445   10.729222202     4.692719187    -15.179078019     0   -1    0   #     C        Sp2
247 1  -0.002529   11.074606359     4.865332760    -11.329148970    -1   -1   -1   #     C        Sp1
248 1  -0.002032   11.315560124     5.991540338    -11.764241051    -1   -1   -1   #     C        Sp1
249 2   0.025471   13.600298606     4.570461575    -13.465411649    -1   -1    0   #     H   Terminal
250 1  -0.023414   14.498159731     5.061535923    -13.312363922    -1   -1    0   #     C        Sp2
251 2   0.047991   -14.500458265    8.813512244    -11.371877458     0   -1    0   #     H   Terminal
252 1  -0.007742   -13.738171107    9.906123980    -13.357956713     0    0    1   #     C        Sp3
253 1  -0.008271   -12.827167432    6.366400535    -14.363591192     0   -1    0   #     C        Sp2
254 1  -0.009133   -12.496393023    9.393295258    -15.232387414     0   -1    0   #     C        Sp2
255 1  -0.003839   -12.699715758    7.509175402    -13.260713551     1   -1    0   #     C        Sp2
256 1  -0.002674   -12.484949742    6.872170381    -11.955598422     1    0    0   #     C        Sp2
257 1  -0.002993   -11.989584873    8.705461132    -13.767769991     0   -1   -1   #     C        Sp2
258 1  -0.005825   -11.989622761    7.540332678    -10.905141246     1    0    0   #     C        Sp1
259 1  -0.003112   -11.568469807    9.663502512    -12.657091774     0    0    0   #     C        Sp2
260 2   0.017074   -10.216077593    7.170729779    -10.965512618     0    0    0   #     H   Terminal
261 1  -0.000718   -9.601131662    10.030799940    -13.998897195     0   -1   -1   #     C        Sp2
262 1  -0.006747   -8.423902122     7.082632302    -14.100101276     0    0    0   #     C        Sp2
263 1  -0.008329   -8.204698376     9.504392148    -14.223891412     0   -1   -1   #     C        Sp2
264 1   0.000628   -8.158231676     7.993017059    -11.190316776     0    0    0   #     C        Sp1
265 2   0.045287   -8.172456539    10.072974880    15.242354632      1    0   -1   #     H   Terminal
266 1  -0.001410   -7.871938607     8.242343381    -13.425917861     1    0    0   #     C        Sp2
267 1  -0.003005   -7.221912391     8.404194922    -12.094610960     1    0    0   #     C        Sp2
268 1  -0.002201   -5.853601493     8.774356409    -11.404480709     1    0    0   #     C        Sp2
269 1  -0.015498   -5.431895160     7.313107756    -14.633098274     0    0    0   #     C        Sp2
270 1  -0.004821   -4.418960948     6.448325929    -13.979923431     0    0    0   #     C        Sp2
271 2   0.024882   -3.689684584     8.817094989    -14.496391957     0    0    0   #     H   Terminal
272 2   0.022549   -2.603846150    10.003023290    -12.910597895     0   -1    0   #     H   Terminal
273 1   0.002076   -2.657796410     7.866212129    -12.007244964     0    0    0   #     C        Sp2
274 1  -0.039858   -2.207366416     8.966702903    -12.768333684     0    0    0   #     C        Sp2
275 1  -0.016437   -1.414970371     6.905230885    -11.844517815     0    0    0   #     C        Sp3
276 2   0.034867   -1.572334446     8.367156599    -13.477200057     0    0    0   #     H   Terminal
277 1  -0.001142   -0.211468724     7.310396580    -10.878142325     1    0   -1   #     C        Sp2
278 1   0.000038    0.857141807     8.136573416    -11.235848125     1    0   -1   #     C        Sp1
279 2   0.025030    1.385077880     6.333403757    -13.955234392     1    0   -1   #     H   Terminal
280 1  -0.009535    2.103323134     8.910794505    -11.523331076     0    0    0   #     C        Sp3
281 1  -0.007343    3.179036134     7.901659099    -11.987714034     0    0    0   #     C        Sp2
282 1  -0.002208    3.502962548     6.545029107    -11.855055722     1    0   -1   #     C        Sp2
283 2   0.021158    4.278255036     9.076942679    -13.404275688     0    0    1   #     H   Terminal
284 1  -0.036298    4.458395371    10.104762604    -12.980918728     1    0    0   #     C        Sp3
285 1  -0.022331    4.894881293     7.360166336    -15.114586640     0    0    0   #     C        Sp2
286 2   0.022537    5.051160251     6.513576940    -14.487643421     0    0    0   #     H   Terminal
287 1  -0.005260    5.469669739     7.968672242    -11.179225887     0    0    0   #     C        Sp2
288 1  -0.003014    5.818718134     6.855687894    -12.132906903     0    0    0   #     C        Sp2
289 1  -0.015602    5.976587722     8.477232579    -15.262117068     0    0    0   #     C        Sp3
290 1  -0.002133    5.943805577     9.354337043    -11.252376707    -1    0    0   #     C        Sp2