LAMMPS data file via write_data, version 29 Oct 2020, timestep = 100 > cluster_extract v3.0 / 24 May 2023

2790 atoms
3202 bonds

3 atom types
4 bond types

-15.063294518227925 15.063294518227925 xlo xhi
-15.367656946177862 15.367656946177862 ylo yhi
-15.619214092947335 15.619214092947335 zlo zhi

Masses

 1   12.00000  #  C    
 2   1.00800   #  H    
 3   15.99900  #  O    

Bond Coeffs

 1  #  C-C
 2  #  C-H
 3  #  C-O
 4  #  H-O

Atoms # charge

 1  1   0.001664   -13.178008846   -14.545718962   -13.078523608     0    1    0   #     C        Sp2
 2  1   0.001052   -12.945914163   -15.207143600   -15.160196005     0    1    0   #     C        Sp2
 3  1  -0.010125   -12.770115235   -14.143375469   -14.565807052     0    1    0   #     C        Sp2
 4  1   0.000510   -12.532297007   -13.951958651   -12.125657808     0    1    0   #     C        Sp2
 5  1   0.040982   -12.054803564   -12.686394218   -14.812535190     0    0    0   #     C        Sp3
 6  1   0.007477   -11.115821112   -12.026251794   -14.186916988     0    0    0   #     C        Sp1
 7  1   0.007166   -9.813524397    -11.720223040   -13.700778668     0    1    0   #     C        Sp2
 8  2   0.018566   -9.302786959    -12.427258939   -11.605443942     1    1    0   #     H   Terminal
 9  1  -0.021099   -9.035226108    -12.513614566   -12.705001876     0    0    0   #     C        Sp2
10  1   0.000292   -8.903012074    -13.646248106   -13.504462225     0    0    0   #     C        Sp1
11  1  -0.019851   -8.674631602    -15.138867257   -13.901413931     0    0    0   #     C        Sp2
12  2   0.016311   -5.531164110    -15.123519233   -14.107636084     0    0    0   #     H   Terminal
13  1  -0.011227   -5.131255935    -14.533122075   -14.982649908     0    0    0   #     C        Sp3
14  1  -0.020222   -4.140449281    -11.540379270   15.598483576      0    0   -1   #     C        Sp2
15  1   0.019378   -4.389197253    -12.079501212   -11.248936271     0    0    0   #     C        Sp1
16  1  -0.011787   -4.143965455    -12.432461529   -12.430821139     0    0    0   #     C        Sp1
17  1   0.002761   -3.934217633    -13.191953657   -13.427149450     0    0    0   #     C        Sp1
18  1  -0.024104   -3.880347889    -14.063302082   -14.499300760     0    0    0   #     C        Sp2
19  1  -0.004028   -3.237352105    -10.957776265   -14.807511860     0    0    0   #     C        Sp1
20  2   0.020100   -2.982572390    -14.438297060   -14.722201743     0    0    0   #     H   Terminal
21  1   0.001770   -2.534177643    -15.133662214   -12.714253600     0    0    0   #     C        Sp2
22  1  -0.025190   -1.923757285    -14.211992746   -11.768776893     0    0    0   #     C        Sp2
23  1  -0.008330   -1.411305677    -15.222203702   -13.606394263     0    0    0   #     C        Sp2
24  2   0.025128   -1.758855397    -12.120120672   -13.757123435     0    0    0   #     H   Terminal
25  1  -0.044099   -1.077262445    -11.673945656   -14.538947646     0    0    0   #     C        Sp2
26  1   0.001829   -0.463561039    -14.422085138   -11.563232169     0    0    0   #     C        Sp2
27  1  -0.004898   -0.168390375    -14.377878892   -13.677697536    -1    1    0   #     C        Sp2
28  1  -0.001523    0.076818610    -12.277816700   -14.708184184     0    0    0   #     C        Sp1
29  1  -0.002804    0.421101466    -13.889837374   -12.613454798    -1    1    0   #     C        Sp2
30  1  -0.015703    0.900220263    -14.568187442   -14.938258324     0    1    1   #     C        Sp3
31  1  -0.013649    1.220994285    -13.023701861   -14.893928665     0    0    0   #     C        Sp2
32  1  -0.009828    1.630243326    -12.965613414   -12.225647896    -1    1    0   #     C        Sp2
33  1  -0.008185    1.882096578    -12.253318223   -11.063563091     0    1    0   #     C        Sp2
34  2   0.022647    2.268887796    -12.998566714   -13.260940737     0    0   -1   #     H   Terminal
35  2   0.020189    2.772316994    -11.652542196   -10.623079013    -1    1    0   #     H   Terminal
36  1  -0.000339    4.539705126    -11.926736120   -14.158571291    -1    1    1   #     C        Sp2
37  1   0.001697    4.867518940    -12.302402851   15.576973329     -1    1    0   #     C        Sp2
38  1  -0.012288    4.924189903    -11.099720502   -11.261590367     0    1    1   #     C        Sp2
39  1  -0.000322    5.242622123    -12.841627263   -13.393664214     0    1    1   #     C        Sp2
40  1   0.039996    5.509727037    -12.279833994   -12.015859504     0    1    1   #     C        Sp2
41  2   0.040183    5.511721511    -13.755856767   -13.730708954     0    1    1   #     H   Terminal
42  1  -0.003729    6.742867386    -13.084979588   -11.586145984     0    1    1   #     C        Sp2
43  2   0.047430    7.651227484    -15.322700905   -13.725748004    -1    0   -1   #     H   Terminal
44  1   0.021297    8.110626809    -12.824194708   -11.994430884     0    0    0   #     C        Sp1
45  1   0.160024    9.125314523    -11.040822022   -13.313006392     0    0    0   #     C        Sp3
46  1  -0.028321    9.095267362    -12.285482334   -12.662979844     0    1    1   #     C        Sp2
47  1  -0.002516   10.210065267    -14.169664193   -11.612237158    -1    1    0   #     C        Sp1
48  1  -0.017272   10.412700792    -13.283524011   -12.493259915    -1    1    0   #     C        Sp2
49  2   0.024597   11.028346626    -13.790060684   -13.157679561    -1    1    0   #     H   Terminal
50  2   0.024601   12.410240429    -11.906663005   -13.281885063    -1    1    0   #     H   Terminal
51  2   0.017693   12.999485123    -13.610687430   -13.094721522    -1    1    0   #     H   Terminal
52  1  -0.050720   13.321171573    -12.541608306   -12.871317769    -1    1    0   #     C        Sp3
53  2   0.021464   13.010644650    -14.865788219   -15.383713223    -1    0    0   #     H   Terminal
54  1   0.000165   13.498973576    -12.330322218   -11.463687764    -1    1    0   #     C        Sp2
55  2   0.033433   14.175407487    -12.620344122   -13.637951278     0    0    0   #     H   Terminal
56  1  -0.017910   -14.523854211   -7.382974161    -14.685964075     0    0    0   #     C        Sp2
57  1  -0.001770   -14.204934013   -7.460096239    -13.384430397     0    0    0   #     C        Sp2
58  1  -0.009008   -13.458470963   -7.114761723    -12.466477089     0    0    0   #     C        Sp2
59  1  -0.006709   -12.006933537   -6.689283292    -12.316791992     1    0    0   #     C        Sp2
60  2   0.034885   -11.531959439   -9.451659781    -13.447488977     0    1    1   #     H   Terminal
61  1  -0.002247   -10.955148801   -7.466139591    -12.809294480     1    0    0   #     C        Sp2
62  1  -0.017549   -10.606534586   -8.903146105    -13.188735120     0    1    1   #     C        Sp2
63  1  -0.007797   -9.628668179    -6.927666115    -12.928326440     0    1    1   #     C        Sp2
64  1   0.003081   -9.179086863    -9.292424465    -13.355748141     0    1    1   #     C        Sp2
65  1  -0.016487   -8.788287326    -10.587078775   -13.749917751     0    0    0   #     C        Sp3
66  1   0.007241   -8.303740163    -7.406679638    -12.850454937     0    1    1   #     C        Sp2
67  1  -0.002096   -8.173866868    -8.578003823    -12.536024898     0    1    1   #     C        Sp2
68  2   0.024474   -7.964926661    -10.761416809   -13.148110559     0    0    1   #     H   Terminal
69  2   0.053218   -7.387644334    -9.482998420    -12.577073089     0    1    1   #     H   Terminal
70  2   0.019610   -6.140775033    -10.110875585   -14.870194075     0    1    1   #     H   Terminal
71  2  -0.012839   -5.632015267    -9.408439438    -13.209910698     0    1    0   #     H   Terminal
72  1  -0.013671   -5.544577079    -10.854167071   -15.465110568     0    1    1   #     C        Sp2
73  1   0.245394   -4.933485403    -9.595197744    -12.374398573     0    1    0   #     C        Sp2
74  1  -0.037205   -3.372945399    -9.621773745    -12.571709880     0    1    0   #     C        Sp2
75  1   0.001434   -2.924635720    -10.492330361   -13.674770204     0    0    0   #     C        Sp2
76  1   0.006592   -2.179573320    -9.775323594    -11.672793167     0    1    0   #     C        Sp2
77  1  -0.076781   -1.801151119    -7.055515403    -15.111157660     0    1    0   #     C        Sp2
78  2   0.049038   -1.539343569    -6.770754484    -14.001062636     0    1    1   #     H   Terminal
79  2   0.018640   -1.204910344    -10.398982641   -11.860575250     0    1    0   #     H   Terminal
80  2   0.034969   -0.753429433    -10.701457227   -14.821458786     0    0    0   #     H   Terminal
81  3  -0.470372    0.480864592    -7.255520548    -15.517611386     0    1    1   #     O        Sp2
82  2   0.041024    1.612765986    -10.383703646   -14.998923345     0    0    0   #     H   Terminal
83  1  -0.029012    2.228662368    -11.111519200   15.605217743      0    0   -1   #     C        Sp2
84  2   0.038056    3.459296731    -8.914817049    -13.283387448    -1    1    1   #     H   Terminal
85  1  -0.037790    3.981718699    -9.596205470    -12.856113022     0    1    1   #     C        Sp2
86  1   0.006193    3.891536286    -10.161105174   -11.444384574     0    1    1   #     C        Sp2
87  2   0.006433    4.404229341    -7.447837991    -12.347513021     0    0    0   #     H   Terminal
88  1   0.015469    4.124987592    -10.644957055   -13.620407764    -1    1    1   #     C        Sp2
89  1   0.223966    4.660879787    -7.344936545    -13.458572829     0    0    0   #     C        Sp2
90  1  -0.059077    5.499736700    -8.214900806    -14.016066021     0    0    1   #     C        Sp2
91  1  -0.028116    5.761449952    -7.558212802    -15.436949288     0    0    1   #     C        Sp2
92  2   0.058899    5.723002965    -8.903984620    -13.367983959     0    0    1   #     H   Terminal
93  1   0.015095    7.904825319    -7.325416631    -11.866152446     0    1    0   #     C        Sp1
94  1   0.004086    8.091329301    -6.584138492    -12.673245982     0    1    0   #     C        Sp1
95  3  -0.470724    8.179356078    -9.996015301    -13.809125675     0    0    0   #     O        Sp3
96  1   0.173584    9.624761315    -9.924674833    -13.940479188     0    0    0   #     C        Sp3
97  1  -0.055363   11.029660781    -9.694220738    -14.191009236     0    0    0   #     C        Sp1
98  1   0.003042   11.422158129    -6.696578461    -15.558716205    -1    1    1   #     C        Sp1
99  2   0.021841   12.843463837    -9.928988979    -13.267884037     0    0    0   #     H   Terminal
100 1  -0.022274   12.229826804    -9.462403102    -14.064338568     0    0    0   #     C        Sp2
101 2   0.060423   12.782223542    -9.426245657    -14.899625506    -1    0    0   #     H   Terminal
102 2   0.020484   14.036603367    -7.657873673    -11.224975744     0    0    0   #     H   Terminal
103 2   0.012852   -14.809597746   -6.294307267    -14.648553446     0    1    1   #     H   Terminal
104 1   0.005286   -15.041165217   -4.062898641    -15.414304183     0    0    0   #     C        Sp1
105 1   0.014869   -13.752881883   -3.530088455    -15.082208379     1    0    0   #     C        Sp3
106 2   0.007919   -13.124801394   -3.851834310    -14.227859697     0    0    0   #     H   Terminal
107 1  -0.005797   -11.521225716   -5.372650725    -11.958204139     0    1    1   #     C        Sp2
108 2   0.059355   -10.398960866   -3.774591167    -13.190747616     0    1    1   #     H   Terminal
109 1  -0.036035   -10.541115508   -4.774070812    -12.993282738     0    1    1   #     C        Sp2
110 1   0.010131   -9.391710942    -5.488767470    -13.086590966     0    1    1   #     C        Sp2
111 1  -0.015078   -7.988161528    -4.968349321    -13.228673566     0    1    1   #     C        Sp2
112 2   0.037050   -7.630224180    -3.849159184    -13.655329014     0    1    1   #     H   Terminal
113 1  -0.015372   -7.442270755    -6.235506087    -12.966582398     0    1    1   #     C        Sp2
114 2   0.025626   -6.278250743    -6.492600127    -12.992784748     0    1    1   #     H   Terminal
115 1   0.006812   -4.995445278    -5.012205112    -15.217956370     0    1    0   #     C        Sp2
116 1  -0.003798   -4.903218772    -2.477807151    -13.108452448     1    0   -1   #     C        Sp2
117 2   0.020373   -3.812915649    -2.763984900    -14.757120790     0    0    1   #     H   Terminal
118 1  -0.021243   -4.275719043    -3.420836675    -12.146265655     1    0   -1   #     C        Sp2
119 1  -0.016641   -3.986580029    -5.952615876    -14.462577466     0    1    0   #     C        Sp3
120 2   0.011590   -3.274630824    -3.880501271    -12.581551277     0    0    0   #     H   Terminal
121 1   0.012194   -3.204998314    -6.680683176    -15.465709523     0    1    0   #     C        Sp2
122 2   0.055280    0.803447138    -6.150694940    -13.406119710     0    0    0   #     H   Terminal
123 2   0.010606    1.104194340    -4.900163788    -11.592954955     0    0    0   #     H   Terminal
124 1   0.055529    1.411159278    -5.387963355    -13.864634926     0    0    0   #     C        Sp2
125 1   0.025699    1.894205670    -4.874929816    -12.539386891     0    0    0   #     C        Sp2
126 2   0.081696    1.586686322    -4.968905219    -14.989798270     0    0    0   #     H   Terminal
127 2   0.075191    2.046701104    -2.675662306    -12.221759937    -1    0   -1   #     H   Terminal
128 1   0.009089    2.657408994    -3.574716938    -12.178842422    -1    0   -1   #     C        Sp2
129 1   0.002140    3.455031164    -3.643071908    -11.263429546     0    0    0   #     C        Sp1
130 3  -0.469574    4.185857393    -6.073616579    -14.066157924     0    0    0   #     O        Sp2
131 1   0.204928    5.143834173    -6.249729557    -15.283164321     0    0    1   #     C        Sp2
132 2   0.036501    6.571475219    -3.806729030    -12.810536209     0    0    1   #     H   Terminal
133 1  -0.026561    7.448426616    -3.351218902    -12.809489178    -1    0   -1   #     C        Sp2
134 1  -0.017592    8.075071169    -2.498607820    -11.882061102     0    0    1   #     C        Sp2
135 1  -0.005393    7.922812834    -4.229358673    -13.855433229    -1    0   -1   #     C        Sp2
136 1  -0.000326    8.203301162    -5.598016634    -13.971193442    -1    1    0   #     C        Sp2
137 1  -0.001965    8.880708786    -3.477467087    -14.852229413    -1    0   -1   #     C        Sp2
138 1   0.002184    9.150150441    -5.673191065    -15.067785524    -1    1    0   #     C        Sp2
139 2   0.022599   10.937616095    -4.201294713    -13.378190938    -1    0    0   #     H   Terminal
140 2   0.022864   11.921555662    -5.014400982    -11.861597716     0    1    0   #     H   Terminal
141 1  -0.032612   11.710491372    -3.586717208    -13.383958987     0    0    0   #     C        Sp2
142 1   0.026947   12.276560903    -2.815079022    -14.505462467     0    0    0   #     C        Sp2
143 1  -0.001452   12.686098671    -3.404489765    -12.570027127    -1    0    0   #     C        Sp1
144 1  -0.009489   13.401766625    -3.453029772    -11.137434042    -1    0    0   #     C        Sp2
145 2   0.024256   14.975221743    -1.084855597    -12.233298086     1    0   -1   #     H   Terminal
146 1  -0.010569   -14.800472446   -0.995580147    -15.467342912     1    0    0   #     C        Sp2
147 1  -0.049923   -14.819503183   -1.638431341    -11.474339389     1    0    0   #     C        Sp2
148 1   0.017432   -13.984652289   -2.024807197    -14.893414882     1    0    0   #     C        Sp2
149 2   0.020983   -13.570694692    0.990131322    -11.939396530     1    0    0   #     H   Terminal
150 1   0.007039   -13.318366403   -1.624285679    -11.427248956     2    0   -1   #     C        Sp2
151 1  -0.025877   -12.686781620    1.458038548    -12.416705321     1    0    0   #     C        Sp2
152 1  -0.069725   -12.080405054   -0.951927947    -12.278203492     1    0    0   #     C        Sp2
153 1   0.006638   -11.984552765    0.312530558    -12.922761375     1    0    0   #     C        Sp2
154 1   0.319159   -10.769154790   -1.704519215    -12.384579183     1    0    0   #     C        Sp2
155 2   0.051675   -11.173389138    0.434995324    -13.738220822     0    0    0   #     H   Terminal
156 3  -0.504900   -9.852699883    -1.630586649    -13.205587938     1    0    0   #     O        Sp1
157 1  -0.007132   -8.633473847     1.678660968    -12.574784526     1    0    0   #     C        Sp2
158 2   0.053817   -8.068536226     1.116493065    -13.391178184     1    0    0   #     H   Terminal
159 2   0.033397   -8.460487503     0.004936360    -10.867101257     1    0    0   #     H   Terminal
160 2   0.065332   -8.527101512    -2.148344168    -15.375028435     0    1    1   #     H   Terminal
161 1   0.028633   -6.439020978    -0.919221933    -13.487315371     0    0    0   #     C        Sp2
162 1   0.007120   -6.149059060    -2.123640922    -12.345126164     1    0   -1   #     C        Sp2
163 1   0.005311   -5.647921439    -1.041176091    -14.591465197     0    0    0   #     C        Sp2
164 1  -0.025535   -4.490508402    -1.960763640    -14.486302037     0    0    1   #     C        Sp3
165 2   0.019804   -4.470790782     0.469911830    -12.485673983     0    0    1   #     H   Terminal
166 1  -0.002537   -3.566795201     1.797318079    -13.457467655     0    0    0   #     C        Sp2
167 1  -0.022625   -3.545155513     0.150765155    -13.016140292     0    0    1   #     C        Sp3
168 1   0.008322   -3.256063930    -0.807262838    -14.012938435     0    0    1   #     C        Sp2
169 1   0.010274   -2.047879306    -1.752377822    -15.463761842     0    0    1   #     C        Sp1
170 1  -0.051676   -1.920918096    -1.232712270    -14.364802192     0    0    0   #     C        Sp2
171 2   0.015357   -0.889902206    -1.711267051    -11.612978889     0    0    1   #     H   Terminal
172 1   0.183142   -0.433184137    -1.434288195    -13.468587717     0    0    0   #     C        Sp3
173 1   0.130514    0.329358750    -0.310758079    -14.076960621     0    0    0   #     C        Sp3
174 1  -0.023523    0.685159447     1.921806394    -12.300665879     0    0    0   #     C        Sp2
175 1  -0.019224    0.855936783     0.562908877    -15.066293045     0    0    0   #     C        Sp2
176 3  -0.474530    0.926767929    -1.731875992    -13.813857629     0    0    0   #     O        Sp3
177 1   0.000973    1.078299681     2.005893546    -14.629511847    -1    1    1   #     C        Sp3
178 2   0.026810    1.375689112     1.227311271    -12.007913409     0    0    1   #     H   Terminal
179 1  -0.021004    2.745971520     1.559980915    -14.411002228    -1    1    1   #     C        Sp2
180 2   0.046559    2.956250221     0.538660019    -14.198713871     0   -1    0   #     H   Terminal
181 1   0.019043    4.742538557    -1.742939189    -15.004050349     0    0    0   #     C        Sp2
182 2   0.025274    5.101754311    -0.999506686    -11.789973748     0    0    0   #     H   Terminal
183 1   0.001623    5.399925020    -0.720159039    -14.399109813     0    0    0   #     C        Sp3
184 1  -0.005866    6.152495417    -0.688845685    -11.815383559     0    0    0   #     C        Sp2
185 1   0.001169    6.107333664    -0.237212838    15.491950001      0    0   -1   #     C        Sp2
186 1  -0.016791    6.443173704    -0.883598740    -13.382708406     0    0    0   #     C        Sp2
187 1   0.006696    6.551126225     2.124391029    -14.843635415     0    0    1   #     C        Sp2
188 2   0.021366    7.278710765    -1.221373358    -13.763412703     0    0    0   #     H   Terminal
189 2   0.024067    8.663680900     0.236806867    -14.143620454     0    0    1   #     H   Terminal
190 1   0.004645    9.243989993     2.072161399    -14.578871038     0    0    1   #     C        Sp2
191 1  -0.000225    9.278614524    -2.097551216    -15.176522657     0    0    1   #     C        Sp2
192 1  -0.002823    9.323357704    -2.006643088    -12.512298518     0    0    0   #     C        Sp2
193 1  -0.021380    9.518229119     0.659298791    -14.719034714     0    0    1   #     C        Sp2
194 1  -0.009011    9.736960020    -1.539300047    -13.879304880     0    0    1   #     C        Sp2
195 1  -0.005114   10.240145511    -1.501950802    -11.445603046     0    0    0   #     C        Sp2
196 1  -0.006435   11.201538271    -0.721805427    -11.927234529     0    0    0   #     C        Sp2
197 2   0.031996   10.928564776    -0.601638201    -13.163217144     0    0    0   #     H   Terminal
198 1  -0.014325   12.536494878    -0.207494247    -11.650758594     0    0    0   #     C        Sp2
199 1  -0.071679   12.970705866    -1.638852951    -14.660365430     0    0    0   #     C        Sp1
200 2   0.025879   13.173903997     0.457357524    -12.390401581     0    0    0   #     H   Terminal
201 1   0.275866   13.685486178    -0.681518654    -15.208364835     0    0    0   #     C        Sp2
202 1  -0.013265   -14.509057041    6.374934397    -13.719960310     1    0    0   #     C        Sp2
203 2   0.028022   -13.988853946    6.238738089    -12.826313723     0    0    0   #     H   Terminal
204 1  -0.004048   -13.109532997    3.822706764    -11.366456121     1    0    0   #     C        Sp2
205 1  -0.004587   -12.305828661    2.795195206    -12.151461330     1    0    0   #     C        Sp2
206 1   0.046771   -11.776881787    4.354585948    -14.804268974     1    0    0   #     C        Sp2
207 1   0.002139   -11.704909016    3.045628154    -15.378826405     1    0    0   #     C        Sp2
208 1   0.302984   -10.898932285    5.811476987    -13.251732018     1    0    0   #     C        Sp2
209 1  -0.061278   -11.072220175    4.442156420    -13.780486067     1    0    0   #     C        Sp2
210 1  -0.003829   -10.677484235    4.978476361    -11.046070750     1    0    0   #     C        Sp2
211 1  -0.077225   -10.418647431    2.594842013    -15.237455546     1    0    0   #     C        Sp2
212 1   0.003260   -10.313070736    3.588093882    -11.301815913     1    0    0   #     C        Sp2
213 1  -0.053451   -9.901333303     5.559553777    -12.188692855     0    0    0   #     C        Sp2
214 1   0.017668   -9.726272158     3.350563788    -13.829018102     1    0    0   #     C        Sp3
215 1  -0.006493   -9.426095410     2.850161099    -12.477143960     1    0    0   #     C        Sp2
216 1   0.007049   -8.285406972     4.108309067    -14.224014301     0    0    0   #     C        Sp2
217 1   0.007029   -8.426464164     5.691156784    -12.254021786     0    0    0   #     C        Sp2
218 1  -0.004583   -7.841857737     3.637979746    -15.303605256     0    0    0   #     C        Sp1
219 1  -0.009268   -7.509352449     5.038449575    -13.219354404     0    0    0   #     C        Sp2
220 2   0.027954   -7.300253505     4.349444643    -11.250307004     0    0    0   #     H   Terminal
221 1   0.012828   -6.285978810     5.669005882    -13.654009598     0    0    0   #     C        Sp3
222 1  -0.027604   -5.695653082     5.378599661    -15.066373256     0    0    0   #     C        Sp3
223 2   0.020566   -5.635535585     2.982787682    -14.607198992     0    0    0   #     H   Terminal
224 1  -0.029247   -5.046484615     3.896377496    -14.948435077     0    0    0   #     C        Sp3
225 2   0.052098   -4.840015044     5.970571920    -15.402170376     0   -1    0   #     H   Terminal
226 2   0.018658   -4.294816395     2.204898031    -11.723577827     0    0    0   #     H   Terminal
227 1  -0.029109   -4.107805437     2.856588211    -12.537980739     0    0    0   #     C        Sp2
228 1  -0.037812   -4.073072858     5.685523297    -11.302181005     0    0    0   #     C        Sp1
229 1   0.007705   -3.852178558     4.200949599    -13.027078970     0    0    0   #     C        Sp2
230 1  -0.011809   -3.520060046     4.143879068    -14.437540048     0    0    0   #     C        Sp3
231 1   0.002184   -3.165673252     5.241825675    -12.097765492     0    0    0   #     C        Sp3
232 2   0.027374   -3.039517227     5.192604226    -14.843641527     0    0    0   #     H   Terminal
233 1   0.001134   -2.528336938     2.819122342    -14.861491013     0    0    0   #     C        Sp2
234 2   0.020756   -2.497059045     5.787296359    -12.803089207     0    0    0   #     H   Terminal
235 1  -0.006358   -2.145406894     2.173992320    -13.627503456     0    0    0   #     C        Sp2
236 1  -0.008328   -1.329950930     2.949572844    -12.661042671     0   -1    0   #     C        Sp2
237 2   0.014556   -0.736619482     5.609742826    -13.321276901     1    0    1   #     H   Terminal
238 1   0.002079   -0.406062506     2.486164421    -11.547608905     0    0    1   #     C        Sp2
239 1   0.000077   -0.368901891     3.348325795    -13.732675493     1    0    1   #     C        Sp2
240 1  -0.018808    0.044584684     4.849023007    -13.616646229     0   -1    0   #     C        Sp3
241 1   0.001539    0.557449360     2.460889628    -13.555142380     0    0    0   #     C        Sp2
242 1  -0.003386    0.627573125     5.208130755    -15.079096531     0   -1    0   #     C        Sp2
243 1  -0.000141    1.281287721     5.057898430    -12.767382378     0    0    0   #     C        Sp2
244 1  -0.012219    1.273052376     5.328106604    -11.423334512     0    0    0   #     C        Sp2
245 1  -0.020551    1.967303003     5.456657310    -14.744454514     0   -1    0   #     C        Sp2
246 1   0.005923    2.266352718     5.788299948    -13.512240399     0    0    0   #     C        Sp2
247 2   0.015829    2.231141171     5.636961239    15.432611126      0   -1   -1   #     H   Terminal
248 1  -0.020615    3.410839495     6.438849601    -12.952147939     0    0    0   #     C        Sp2
249 1   0.017252    3.529475509     2.408907555    -14.260425007     0    0    0   #     C        Sp1
250 1   0.012647    3.820754598     5.929039266    -11.807915448     0    0    0   #     C        Sp2
251 1   0.010104    4.386693918     4.524141633    -15.251423746     0    0    0   #     C        Sp1
252 1  -0.031620    4.378551682     3.544955159    -14.274676798     0   -1    0   #     C        Sp2
253 2   0.121060    4.771600116     3.343483929    -13.155277403     0    0    0   #     H   Terminal
254 1  -0.009346    5.206596057     6.216440185    -11.381055187     0    0    0   #     C        Sp2
255 3  -0.495200    5.393498919     2.975638343    -11.575042814     0    0    0   #     O        Sp3
256 2   0.044567    5.472424787     5.555564656    -10.747827269     0    0    0   #     H   Terminal
257 1   0.017624    7.120418128     3.413860694    -14.349709579     0    0    1   #     C        Sp2
258 1  -0.004233    7.636556261     4.407502306    -15.428673766     0    0    1   #     C        Sp2
259 2   0.027669    8.104607357     5.288759710    -12.492357692    -1   -1    0   #     H   Terminal
260 1   0.003874    8.329713952     2.941463152    -13.555312181     0    0    1   #     C        Sp2
261 1  -0.010066    8.329853759     4.796449414    -11.525668290     0   -1    0   #     C        Sp3
262 1   0.030942    8.614474862     3.428473820    -12.203811018     0    0    1   #     C        Sp2
263 1  -0.000582    9.566028122     2.691117130    -11.397635080    -1   -1    0   #     C        Sp1
264 1  -0.028711    9.972421145     5.242097509    -11.188289667    -1   -1    0   #     C        Sp2
265 1   0.005790    9.927161320     2.603410201    15.511189314      0    0    0   #     C        Sp2
266 1  -0.024079   10.744685234     6.305725863    -14.322254279    -1    0    0   #     C        Sp2
267 2   0.025282   10.438048918     5.409439753    -14.616960157    -1    0    0   #     H   Terminal
268 2   0.017645   -14.960031482    4.554789367    -14.057075951     0    0    0   #     H   Terminal
269 1  -0.014178   15.033924979     5.443803296    -14.521252895    -1    0    0   #     C        Sp2
270 1  -0.013275   15.047474494     9.952068232    -15.025213655     0    0    0   #     C        Sp3
271 1   0.018244   -14.320954430    7.516773505    -14.529641166     0    0    0   #     C        Sp1
272 1   0.034590   -13.923490783    8.791824243    -14.993403895     1   -1    0   #     C        Sp2
273 2   0.038983   -12.945025725    9.082743799    -13.254423091     0    0    0   #     H   Terminal
274 1  -0.011129   -12.778655110   10.356631892    -13.265889989     0    0    0   #     C        Sp2
275 1   0.000391   -11.750384007   10.756530688    -14.201040280     0    0    0   #     C        Sp2
276 1   0.025010   -10.873307224   10.183933022    -15.046619961     0    0    0   #     C        Sp1
277 3  -0.461609   -10.949278724    6.792216618    -14.126694363     1    0    0   #     O        Sp2
278 1   0.004478   -8.281518359     9.941622378    -13.763051346     0   -1    0   #     C        Sp2
279 2   0.042556   -8.154522783     6.537379137    -11.529848977     0    0    0   #     H   Terminal
280 1   0.020410   -7.797646572     8.787916293    -14.463087019     0   -1    0   #     C        Sp2
281 1   0.002649   -6.968232675     8.241924414    -13.354042393     0   -1    0   #     C        Sp2
282 1   0.057892   -6.578020675     7.040313699    -13.498519146     1    0    1   #     C        Sp1
283 2   0.073348   -6.135606873     8.750126744    -12.530196354     0   -1    0   #     H   Terminal
284 2   0.077394   -4.807967750     9.226600332    -11.596416609     0    0    0   #     H   Terminal
285 3  -0.631920   -3.897727896     8.104412319    -14.061463815     0    0    0   #     O        Sp3
286 1   0.320467   -3.924525428     8.684018577    -15.408575547     0    0    0   #     C        Sp2
287 2   0.290427   -3.023942674     7.843521335    -13.810016471    -1   -1    0   #     H   Terminal
288 3  -0.428556   -2.993750914    10.779409152    -13.569223267     0    0    1   #     O        Sp2
289 2   0.064361   -1.510511117     8.951150416    -13.429735623     0    0    0   #     H   Terminal