LAMMPS data file via write_data, version 29 Oct 2020, timestep = 300000

2662 atoms
3 atom types

-14.964557989188178 14.964557989188178 xlo xhi
-14.481956015785299 14.481956015785299 ylo yhi
-15.573557745056641 15.573557745056641 zlo zhi

Masses

1 12
2 1.008
3 15.999

Atoms # charge

1594 1 0.0006495077155809111 -12.205723434197044 -13.037088879773533 -14.170051303940344 0 1 0
1209 2 0.03394762197154667 -12.547158043929787 -8.080723236172059 -10.402122580565461 0 1 0
3339 1 -0.017508202607076095 -13.065127884258562 -8.939658622199538 -10.727419086551336 0 0 0
2779 1 -0.01342170360625091 -12.475196214579295 -10.092384363538553 -11.526564812611408 0 1 0
3782 2 0.015494026135079124 -11.67562261017966 -10.06212130482793 -12.432844415327676 1 0 0
1597 1 -0.007789526276587192 -12.815804529229906 -12.701901912303468 -15.252876986120514 0 1 0
3179 2 0.01651491268985213 -13.203149267740745 -12.761146773964292 -11.10534539348501 0 1 0
2778 1 1.2982231809396255e-05 -13.516414786234638 -11.005581107690455 -12.132577554809675 0 1 0
857 1 -0.02586235808934316 -13.91836684533602 -12.39032982668919 -11.706236724680542 1 1 0
186 1 4.0603606081747456e-05 -14.228036219076182 -9.102543068933706 -9.783818810016387 0 0 0
1920 1 -0.04276428837867444 -8.510060327074628 -10.703538937055075 -13.645284436624516 0 0 0
4607 1 -0.01117695071070406 -10.021704612161752 -13.600689656002181 -12.73612286170289 0 0 0
1197 2 0.027618775576878002 -9.25477035163567 -12.913450857944037 -13.26464385179202 0 1 0
4276 2 0.014931735117600976 -8.825011552545394 -8.642107766969529 -15.00914211554255 0 1 1
1938 1 0.006903267502737058 -8.144069432940084 -10.34282595425691 -12.593528231841582 0 0 0
936 2 0.020735499460790834 -9.43095401333236 -11.070168862723932 -14.072932230517372 0 0 -1
1175 1 -0.005442200881516694 -9.134502041777198 -11.89337501407096 -9.066193891829645 0 1 0
1593 1 -0.022011117453484438 -11.540249507304004 -13.557259518900297 -13.01358567480583 0 1 0
2780 1 -0.030537654969465294 -11.679405990260772 -13.390694191486217 -9.348615196314569 0 1 0
2903 1 -0.005236814757159411 -11.976928758179518 -12.661775879726477 -8.36477315609481 0 0 0
1167 1 0.018731579489461463 -10.108129147627151 -11.08885868104353 -8.40675742602121 0 1 0
4256 1 -0.0004712067445701504 -10.727470776681177 -8.130726797424684 -15.348756195499108 0 1 1
1815 1 -0.018364555254837805 -8.121546957940605 -12.64832238325259 -9.39103685542958 0 0 0
1166 1 -0.002570160679920025 -12.458396571430345 -11.336933854614736 -8.179155847254819 0 1 0
1165 1 -0.019686450305831618 -14.041504514248468 -11.083716805900785 -7.935465385860199 0 1 0
3928 2 0.019925649205566588 -14.020963133800771 -9.523269853097702 -13.99012042003667 1 0 0
2815 2 0.019941106286333034 -11.401876881973678 -12.866782510201006 -10.233930048667574 0 1 0
137 2 -0.02534420558777142 -8.435943858155536 -9.19987649965523 -8.933913450308946 0 -1 -1
133 1 0.31714512111341964 -8.835313902977774 -8.202298373824267 -8.42401235561344 0 -1 -1
1164 1 -0.02683838141607548 -11.145413458054662 -10.759529944380606 -7.8038020659358835 0 1 0
131 3 -0.4985473957954197 -9.979005047009219 -8.026463475773312 -7.911094751137022 0 -1 -1
1027 2 0.03052278215283357 -14.582802037165754 -12.13677235841843 -15.340833398288316 0 1 0
2788 1 -0.001719771273574474 -14.761556302388568 -10.850926525100022 -12.949570415005565 0 1 0
1951 2 0.019442687780136532 -7.870165465801585 -12.768429475036928 -10.44137664677918 0 0 0
858 1 0.012032752548305745 -14.593632705266346 -10.567666618708984 -9.35388651511083 1 1 0
136 1 -0.043626467272568775 -7.513721344822286 -7.457432718242595 -7.917675684136943 0 -1 -1
4138 2 0.03829057447475159 -9.426615189432514 -13.159002304430333 -15.293885530875391 1 1 0
2376 1 -0.005497410770687314 -10.642078051962692 -6.709655373564265 -14.877890380643947 1 0 0
1525 1 -0.0003850223782957754 -12.18537420818523 -0.12742991103689327 -11.821056018263157 1 0 0
2640 2 0.01911517139352928 -14.681364592600426 -4.684612220667454 -12.710592790327821 0 0 0
195 1 -0.006030067919853506 -13.157325139332663 -6.507603920306644 -15.507924928623728 0 0 0
2370 2 0.02138142465947752 -8.14682290966646 -2.307215805284333 -10.812144986379735 1 0 0
2354 2 0.019421572931459 -9.068908560630817 -0.5982188746438553 -11.706333397662888 1 0 0
194 1 -0.01074577757974032 -14.626539153561197 -6.918447660892187 -14.813896236576129 0 0 0
3384 1 -0.033982792594262595 -14.611262721780502 -6.320769100080044 -10.26921563032518 0 0 0
925 2 0.02398514996979536 -13.756143737050435 -5.539451758215916 -10.14197659870623 0 0 -1
2384 1 -0.006163059880319337 -11.985365273249963 -5.935822128407652 -14.896474083398603 1 0 0
2364 2 0.024387924630837693 -10.548542313975897 -5.62609545408214 -12.099575984327592 1 0 0
4305 1 -0.004355931936865946 -11.669945347209776 -4.490589867688016 -14.272407044637273 0 1 1
1506 1 -0.0008700923259472634 -11.99848709607643 -2.7273818654791437 -12.7810979641614 1 0 0
3885 1 -0.003680362129882455 -11.842521684052555 -4.1476382465770385 -12.914100266520698 1 0 1
1507 1 -0.013307570995394587 -11.11168541771185 -4.67424817785364 -11.643887405000775 1 0 0
1370 1 -0.0013386046018068268 -13.010087949880457 -1.858368939094598 -13.246653529187714 2 0 -1
1513 1 -0.01642332004612182 -9.816001949302006 -1.0366714965078714 -12.2796282463724 1 0 0
1508 1 0.0029090646482801616 -10.49070559430653 -2.361268108698331 -12.265767390668856 1 0 0
1369 1 -0.0007071970658707391 -13.38587233004185 -1.0732478936726633 -12.056143881837778 2 0 -1
2336 1 0.003457566701595357 -9.990555514245704 -3.508702563173294 -11.641556235982247 1 0 0
2611 1 -0.0053730596901454195 -13.822848672954574 -1.6433663833727703 -10.82358032455695 0 0 0
2335 1 0.0015433557909790667 -11.608257038109661 -4.54822941542878 -10.200303979811107 1 0 0
2613 1 -0.00495478383902008 -12.644113922069263 -3.5919011197621735 -9.851449613699039 0 0 0
2610 1 -0.021255239122611926 -13.836166414913816 -2.5857318286911593 -9.779616433415523 0 0 0
2285 1 0.0066288958753594335 -10.699703298293212 -4.620687876703752 -9.02983789951146 1 0 0
2284 1 -0.004404677834727505 -10.065976343742925 -3.3329925353471435 -8.70684207215988 1 0 0
1511 1 -0.04176452578006905 -14.70712314819416 -2.32792286132012 -15.504599895416138 1 0 0
1371 1 0.0008190900278388993 -13.710619958055368 -1.2561734490777638 -14.611302465758092 2 0 -1
4304 1 -0.02374684136988858 -10.766549751204945 -4.027707790497107 -15.315417215401235 0 1 1
2337 1 -0.022876099686685143 -8.74743798513105 -3.28991577238582 -10.837778605179267 1 0 0
2645 2 0.02185991369122455 -14.451563060576312 -2.5738903283512595 -8.926951276141432 0 0 0
2267 1 -0.019259942440159328 -9.491255348959232 -2.3370160226182737 -8.415240986133181 1 0 0
4331 2 0.03355610639027001 -10.792338271681656 -2.8888601694098774 -15.460360257781725 0 1 1
1825 1 0.0021483597001313165 -7.957078040630324 -1.8449929277637533 -8.208678398375458 0 0 0
2298 2 0.017056443762569613 -10.423514011741446 -1.6618124734006248 -8.034087982216192 1 0 0
2349 1 0.015930346997565112 -8.100138260274644 -4.404461039354821 -10.62899865503491 1 0 0
1517 1 0.004493604344423988 -10.871250140570627 -0.0504025859947177 -12.439466107670773 1 0 0
3386 1 -0.007645509230571487 -13.490831866737734 -5.9899468391917345 -7.857879102779206 0 0 0
1515 1 0.002893673076735895 -12.728568966500307 -0.36853419095496065 -14.989839000886418 1 0 0
3385 1 0.005353930781641257 -14.806052756167555 -6.777509742345141 -8.698474233300553 0 0 0
1354 2 0.020431172778721918 -14.188426755624047 -7.1754805263420955 -10.974008242333127 1 0 -1
4303 1 0.0005561052643484853 -9.49785250533096 -6.114883411481472 -15.447210960847096 0 1 1
130 1 -0.006644370481789747 -7.510466500005759 -10.683694659035858 -2.373001690300949 0 -1 -1
1158 1 0.008865184375255538 -14.828974068882626 -10.085132486794828 -7.150400237953528 0 1 0
3595 1 0.023389470598445927 -8.909868446829881 -9.98442221352272 -0.674237658072899 0 0 0
138 2 0.03667960188299421 -8.034510388902447 -12.056663348928357 -1.0677680741700897 0 -1 -1
4205 1 0.004630065230787404 -9.922194382235418 -7.4735967105617505 -0.19527258492563604 0 0 -1
351 1 0.0001403251831334617 -12.16663882257997 -14.415583197047793 -5.512770990302716 0 1 -1
379 1 0.0920069692243011 -12.63428515322828 -13.8759897342374 -4.318318858725096 0 1 -1
1756 1 -0.05755385912479947 -11.887768449026431 -11.295252400126628 -0.6319488519422549 0 0 -1
3626 2 0.03794242638487052 -11.079483547600923 -10.999999637246022 -0.01955861651830304 0 0 0
1196 2 0.09481549686285357 -11.283732735681513 -9.599964106600202 -7.711741630424195 0 1 0
4809 1 -0.010428351749559655 -7.7785255196731065 -7.838577329987655 -4.1189617896310295 0 0 0
391 2 0.033289788409511314 -11.325574120541635 -11.670594357336075 -3.982145370383627 0 1 -1
979 1 -0.017825355691658065 -8.925602536056706 -12.686216143689336 -4.360660654118888 0 1 -1
2906 1 0.23786908197758125 -13.759208130034965 -10.30948331539553 -4.920809781065916 0 0 0
3620 1 -0.011045282885636446 -8.827875561270499 -9.022049781549878 -4.424786889557415 0 0 0
3619 1 -0.010600602971236463 -7.986313490049245 -9.595102091138921 -3.284192251947516 0 0 0
2900 1 0.011356570391937975 -10.334989224229158 -8.460144512181127 -4.327812324010544 0 0 0
2907 1 -0.03074070252082922 -12.454258338881353 -9.733432350009469 -4.964877844105519 0 0 0
2908 1 0.036423366913617264 -11.281433108565512 -9.354320398733037 -4.88463774984262 0 0 0
3640 2 0.024534268951402354 -8.274680662107674 -9.633829314881702 -5.226445436159736 0 0 0
4122 1 0.0449655345416676 -10.370003880388946 -7.500156652968159 -3.3305977316234863 0 0 -1
378 1 -0.023893155631999313 -11.716225354849506 -12.587986146228053 -4.455770854696571 0 1 -1
1757 2 0.030881446226761713 -11.533628814271712 -12.34384729550586 -1.052000936361253 0 0 -1
377 1 -0.005367137658942537 -10.280956605968651 -13.080671680804132 -4.717265931206988 0 1 -1
410 1 -0.004404536154416182 -8.055336145142217 -13.627308403831423 -5.233029080737989 1 0 0
134 1 -0.038961485699472234 -8.74917722821347 -11.247367556282894 -1.439222698394106 0 -1 -1
359 1 0.016464989127503223 -10.585222009196428 -14.467972110533864 -5.499107019825477 0 1 -1
139 2 0.01898549171257416 -9.69074653083156 -11.70491232446067 -1.567444690202331 0 -1 -1
2977 3 -0.5045952967984066 -14.301078668923319 -10.676634678531007 -3.5634939390474027 1 0 -1
1159 1 -0.03976870450081224 -14.494150865503512 -10.915758276268416 -5.940503846559034 0 1 0
1843 2 0.025567110479509957 -14.403875066631091 -12.069060298925063 -7.39981359640298 0 0 0
2862 2 0.047184435090035184 -11.932852100415634 -10.649011657227527 -1.573717894603126 1 1 0
3596 1 -0.00413221955618252 -7.88477842369539 -9.031999754816745 -0.14338374928281716 0 0 0
1847 2 0.019168936109018014 -11.195938437984811 -0.1825693936705015 -5.618730487622578 0 0 0
1860 1 -0.0005977041568055314 -14.923733190555277 -2.635911526837001 -6.063698793732275 0 0 0
544 2 0.04060824516243708 -8.890093068686848 -4.698927538289393 -3.2229836603695183 0 0 -1
1892 2 0.018712380541845392 -7.924019567768317 -0.6763342552263811 -5.0539439621778595 0 0 0
3583 2 0.02193494028075727 -7.74248736059838 -4.8362654114722154 -4.620069419961128 0 0 0
2071 1 -0.0018524265707676457 -13.133702281818556 -4.245613599481182 -5.462829024933045 1 0 0
4236 1 0.0025941342918019625 -14.93886892142609 -1.7800936448459712 -3.7626644054343608 0 0 0
2982 1 0.04181550961674465 -12.257374127379911 -5.944728214716893 -7.721861080315411 1 0 -1
2072 1 0.01728496609507356 -11.133617244220599 -5.253815995196369 -7.778588527389025 1 0 0
1861 1 -0.014029889929268725 -10.199357849856955 -0.7610047570723566 -5.557024205436864 0 0 0
4245 1 0.020759091775201105 -13.679939287978828 -3.5406138277060446 -4.23841373831066 0 0 0
4811 1 -0.003414651817157173 -7.569530837270295 -6.004799058938964 -2.264476423283897 0 0 0
1867 1 -0.001811609656409481 -7.756741991751612 -3.0592425901242173 -5.804540318097763 0 0 0
1858 1 -0.007578667675983631 -8.968913835338883 -0.44602941356539105 -4.883485042217119 0 0 0
4121 1 -0.009257102206206902 -10.261319467384554 -6.708650940028991 -2.4033461854707348 0 0 -1
1864 1 -0.0026342146040766977 -14.30942557168619 -4.6908336605738405 -7.576972215787895 0 0 0
1941 1 0.0012730100202311828 -9.405085892325697 -4.693619899067752 -5.930991747197536 0 0 0
4810 1 -0.005636549489859637 -7.703149865146906 -6.8567693096487945 -3.179941745414947 0 0 0
2556 2 0.02650497525645768 -8.916771591774136 -5.449491959782421 -0.2084728541942411 0 0 -1
909 1 -0.03992577385206539 -8.230109691041761 -4.513894876273888 -2.4020598622988256 -1 0 -1
3473 1 0.006593865011608033 -10.873212947064193 -3.4258588493377715 -0.7466971973366707 0 0 0
2081 2 0.073014506171776 -13.496689161049012 -5.376056772345748 -3.9760966078499447 1 0 0
3493 1 -0.0033108533750945933 -14.741230529957695 -3.577764330028268 -0.7452340392059948 0 0 0
3552 1 0.18856764280816113 -12.414516820939767 -3.772152273614445 -2.1776125756655116 0 0 0
414 1 0.002362550770863177 -10.409599217635758 -2.1027891338928786 -1.1889564310456482 1 -1 0
2978 1 0.02370149893300778 -10.746749908103816 -5.080449713355424 -6.256080221802838 1 0 -1
3484 1 -0.021261658395439482 -14.01144735384486 -1.8852125200506045 -2.62409253874649 0 0 0
2962 2 0.014464693555394176 -8.64618415021124 -4.966684133429364 -1.5389786145541837 0 0 -1
2555 1 0.20524342684337432 -10.539646506118292 -5.53584997726858 -1.8567353952818948 0 0 -1
2307 2 0.019628826530887128 -13.601174604562113 -1.063735095200169 -1.9716066979774496 1 0 0
3553 1 -0.03501470079947232 -12.283414044038748 -3.7191724036926956 -0.7721695646697153 0 0 0
2551 1 -0.07218177309403823 -9.905587279777036 -5.984591412413993 -0.5325972610934855 0 0 -1
1942 1 0.028449514330931302 -8.429894649937925 -5.7345184156309745 -6.6539934333652635 0 0 0
1869 1 9.355815467448209e-05 -10.276230041524006 -2.2137469420230502 -5.878662646559576 0 0 0
3341 1 0.0039005554885598037 -14.151487220515863 -6.2554918438032665 -4.451304113974718 0 0 0
4246 1 -0.03478037389622719 -13.070724784027144 -3.122188739017421 -3.0310893098775047 0 0 0
1868 1 0.0038770300198256065 -9.246671793848456 -3.280206139699196 -5.623814693974129 0 0 0
1856 1 -0.005828679684105959 -13.965671452480704 -3.6108591368159484 -6.667924275011034 0 0 0
4243 3 -0.4737301502848815 -11.623293882377101 -5.043187694372675 -2.8857258527768597 0 0 0
540 1 0.006412720348601179 -7.487441342648425 -3.2481127688683618 -2.2582499013784876 0 0 -1
416 1 -0.0007794405775406847 -10.240691132370117 -0.9689187777889288 -1.810319980498834 1 -1 0
4244 1 -0.014958936357806676 -14.427194884406553 -2.5166980180218452 -4.803123812279084 0 0 0
2979 1 0.042194922639615225 -11.772472721867823 -4.501867558565808 -5.653874769940531 1 0 -1
357 1 -0.05470467394514138 -7.6365431809393165 -3.0633127115939462 -0.032422043679021684 0 0 -1
3476 1 -0.008390328654439883 -13.408647713864095 -3.9476943532676767 -0.026047559424085875 0 0 0
4204 1 0.021573763319215268 -8.622734911020075 -8.010037446157927 0.5505482184600918 0 0 -1
4202 1 -0.013695134994099856 -13.296726262958867 -8.318467351298292 0.557823214113979 0 0 -1
434 2 0.047610289842188194 -12.303733526033572 -10.194932901561334 3.2384558931594487 1 0 0
408 1 -0.09508598427516278 -12.093242352261381 -9.222682617512989 3.6723013176552595 1 0 0
424 3 -0.4358492390576679 -9.743220999526306 -9.952609941340032 3.294147758403449 1 0 0
2499 1 0.0043495157407911055 -13.085755795963083 -8.645559632887263 4.604605524461098 0 0 -1
4297 1 -0.0030793060925202575 -12.53557096027294 -11.927319983548598 5.790876865703831 0 1 0
407 1 0.31112517937249073 -10.702777528560173 -9.452331869031013 4.005320610987999 1 0 0
4591 1 -0.006256843280311231 -14.02917126685016 -12.094635443451073 5.456843892664962 1 0 -1
406 1 -0.09843227499168636 -10.49817320206101 -8.558312962296654 5.420627410818371 1 0 0
4296 1 -0.002589978590738968 -11.410351950453666 -11.953768758620912 6.115189864415642 0 1 0
2503 1 -0.002061806107820894 -13.752492612568263 -9.72945521011767 5.395207209726939 0 0 -1
423 1 -0.007093011262276329 -8.339677009514624 -9.24434709466642 6.22850304056063 1 0 0
419 1 0.011158458945513613 -9.265953191966734 -8.241097838249832 6.034955523029494 1 0 0
4182 1 0.013833441257397026 -10.019509316763944 -12.665649371417398 6.169699221421032 0 1 -1
4587 1 -0.02022114215068814 -13.180909332700866 -10.250556658210785 6.537064584898852 1 0 -1
3472 1 0.034232121752513646 -8.150055267198526 -14.477324679582962 0.19070461649845782 0 0 0
4184 1 0.0067861599402531635 -9.319145789713502 -13.566583311779953 5.411424845280505 0 1 -1
4183 1 -0.0020187109238337664 -7.863258439591846 -13.776525026750361 6.371016991860889 0 1 -1
409 1 0.23617473205646744 -11.32350585199269 -7.626967245775207 5.7198069743442215 1 0 0
551 1 0.1721839549326309 -9.278135095093333 -7.4114272821239044 7.111921315592676 1 0 -1
2502 1 0.00014494407653303093 -14.246731578989309 -10.961750113285373 4.619510044231999 0 0 -1
4254 1 -0.0504796494581017 -12.586099629604476 -7.320528115650243 5.072656767696012 0 1 0
4392 2 0.01969270927846777 -12.110213662426611 -10.190971187218825 6.771420354532053 0 1 0
4206 1 0.013160193997174998 -11.051324840458198 -7.5947679521173335 0.49621602011591115 0 0 -1
2552 1 -0.0009134937100340364 -14.582899735041224 -7.9156954468189555 0.9850821123688807 0 0 -1
1753 1 -0.0026116253868211647 -14.072665215076416 -11.4523811201353 1.0367876078816334 0 0 -1
4186 1 -0.0075210260132436285 -9.714267351935696 -12.095198441698695 7.292930228631471 0 1 -1
1752 1 0.024236194710250514 -13.071079700016016 -11.592400620242056 0.21963343133917235 0 0 -1
4541 2 0.03055220934579299 -13.71733019914939 -9.265224999344365 2.6603702164342398 0 0 0
4207 1 0.006137557338033719 -12.266066119872388 -7.6025863734359405 1.151378394493749 0 0 -1
3479 1 0.0069332424560451175 -9.395600840579112 -14.237132331153989 0.10194246174731525 0 0 0
422 1 0.04012910015230094 -7.825923752721978 -10.39849212947755 5.574663759974426 1 0 0
4520 1 -0.02695414159325507 -14.67258847335555 -9.338968425383555 2.6873272438153553 0 0 0
2848 1 -0.006301577185742639 -11.021489797061832 -14.109640236075885 1.9682694408578438 1 1 0
4263 2 0.05875086411647672 -10.780795138505889 -13.017758698751024 2.4082698509444302 0 1 0
2193 1 -0.004480523637117689 -7.687853968126546 -12.715067253229293 7.550254630787373 1 1 -1
1754 1 0.0013127891246012928 -14.956527924178745 -11.433848018646433 2.0247216367738243 0 0 -1
2459 2 0.02885084393665103 -12.89450100527852 -9.307747365375935 0.10769031335674661 0 0 0
4277 2 0.03891290013876138 -14.534363205100863 -4.919448243431475 7.033410773021091 0 1 0
4208 1 -0.005047081325352896 -7.636038457184218 -7.1775779695325905 1.3613424321699679 0 0 -1
3409 1 -0.03886750186369318 -14.825047913996524 -0.684534200636973 0.32702078064748896 0 0 0
412 3 -0.491700856518464 -10.757145766584134 -6.736099858307428 6.814871313260793 1 0 0
2093 1 -0.01698487952923974 -12.165698207866651 -0.35966365498696007 3.6333912062963254 0 -1 -1
2497 1 -0.030254359472834957 -14.766201712330533 -5.856979571541624 4.599082900178436 0 0 -1
2101 1 -0.000694808946252231 -10.145047303229957 -0.6720311349583454 5.095630986790377 0 -1 -1
2091 1 -0.039835652861887144 -14.189666826139339 -2.9236702289209173 4.768024050206941 0 -1 -1
4369 1 0.003374654769442556 -14.450269748589518 -6.454490306644182 0.44500917536863405 0 1 0
562 1 0.004633449762545249 -8.570923849213012 -6.394666550925436 2.2024071136252648 1 0 -1
2092 1 0.23871195119238936 -13.240663621680929 -2.014050108287181 5.098712283765499 0 -1 -1
2433 1 6.703201520584859e-05 -13.506915745410716 -5.604991078024385 0.7366140687613889 0 0 0
2432 1 0.004059521709859511 -11.495966476235031 -4.942502372483991 1.2797028177290226 0 0 0
3474 1 0.003094871401266207 -10.573500086646906 -4.625187325817052 0.015317159732752827 0 0 0
2431 1 -0.0072442640113582375 -12.389350059710022 -6.029705715262548 1.369032438884032 0 0 0
3483 1 -0.0020692002258390144 -10.930715336503873 -4.794539198577068 2.6378876696747984 0 0 0
3475 1 0.04806809788986982 -10.156327615620095 -4.462000331335203 3.79117063807354 0 0 0
2102 1 -0.0007715265084020408 -9.896724816596095 -1.8018847983283042 5.851017066752133 0 -1 -1
3600 1 0.0071474239335956626 -9.546906444165575 -4.103942181315864 4.808836450258907 0 0 0
320 1 0.011379875234268488 -10.397983227391439 -3.0244887357416843 5.5436777112296145 0 0 -1
2104 3 -0.4611820382794234 -12.813363107425705 -1.934209667135395 6.5255010265290405 0 -1 -1
2496 1 0.008710941000329523 -13.49459344359639 -6.23385444769186 5.3427107779774605 0 0 -1
2113 2 0.030687400032356336 -9.082661655044262 -1.5181848882797357 6.562093271069456 0 -1 -1
2088 1 0.18407239843739945 -13.126609152766092 -1.0725612951351806 3.9531943089769594 0 -1 -1
342 2 0.024428360981317836 -11.126439550384843 -3.0921641934966146 4.576464687670454 0 0 -1
2450 2 0.03943485994355663 -13.357877279843137 -3.762967121531114 1.0784916513267024 0 0 0
2495 1 0.028477636488847227 -13.110891183013017 -5.148150239300447 6.330962741181045 0 0 -1
566 2 0.05196423447620367 -9.379327150104103 -5.747848475346897 2.069803810049729 1 0 -1
3610 1 -0.04456948675761202 -11.085831475194539 -3.6477517523037477 6.789282132872051 0 0 0
2089 3 -0.4468617396173952 -14.23009235037031 -1.715749555085866 2.9791071316997115 0 -1 -1
3608 1 -0.09762851429759245 -9.028203756385885 -4.156885490513023 6.924708906958381 0 0 0
3706 2 0.04907169267231218 -9.146021036676302 -6.506028340124737 5.285770825947951 1 0 0
3611 1 0.17748402025256096 -12.072032168634223 -3.0229027949982186 7.508189789129355 0 0 0
2504 1 -0.0170950403869627 -12.990785131162498 -4.368639910654776 7.167607079709251 0 0 -1
319 1 0.2632845771865023 -7.911684294887318 -4.331667094737799 6.366870813916977 0 0 -1
383 1 0.007292959264373799 -8.171404020429716 -4.458785368458615 4.928476585657952 0 0 -1
557 1 0.03688901887005083 -7.911875723826739 -6.372642402388344 3.341874079298096 1 0 -1
366 3 -0.4748373567848164 -8.049369785266855 -3.8083251978094985 2.471936729363419 0 0 -1
3413 2 0.08226644972469835 -14.405989146936317 -1.7176137802739344 0.69966815970316 0 0 0
2079 2 0.028734535284816738 -8.140399109427566 -0.26229562930400085 3.6430257435583737 1 0 0
2512 2 0.01258330722411179 -14.877917615752859 -4.643817161110308 4.726134571931878 0 0 -1
561 1 -0.03916286511216259 -8.34068559214677 -5.924365330107316 4.668125112047269 1 0 -1
564 2 0.040431571925591187 -7.532790352644642 -6.243312331196307 5.433587384853103 1 0 -1
388 2 0.05599175707027762 -8.466119037988728 -3.664448336016637 0.16724862810115226 0 0 -1
1595 1 -0.004367385009676384 -13.630571632345658 -14.068464144028793 15.416761164358759 0 1 -1
3343 1 -0.0029181259841458765 -13.971841325028738 -10.590877909589196 7.8513490490846305 0 0 -1
2188 1 -0.008521857610611652 -8.831803443733712 -11.790736342560312 8.172244764297139 1 1 -1
3502 1 -0.022096573109288448 -8.123676131313024 -7.516124396022036 7.915091077718424 0 0 0
2137 2 0.018495310970338633 -8.481394659272668 -14.206579005318298 9.54746749852083 0 0 -1
4235 1 -0.014812500832691599 -9.350760580660955 -8.787774877641244 15.077370829337776 0 1 0
4190 2 0.016378509180212403 -12.511116740912007 -12.355850439699147 8.22502617319567 0 1 -1
2410 2 0.07311847773314481 -12.816143375460193 -8.752925280388618 12.090412955708379 1 0 -1
1726 1 -0.019589013159410085 -9.411075470736831 -14.1524514328854 12.236623815173457 0 0 -1
2127 1 0.0036861848446872007 -10.48764182490283 -13.899728847408488 11.321893914781912 0 0 -1
691 2 0.043154798299787474 -14.771889640082323 -8.752614321343966 14.954010641683153 1 0 -1
4290 1 0.04011817469556685 -8.550301608936337 -7.908616272759567 13.914857722954038 0 1 0
1724 1 -0.014223588300726859 -9.69082669748559 -12.872671868107584 14.729946516113893 0 0 -1
1725 1 0.01468991654418815 -9.345506330375809 -13.652416941677439 13.621967535443913 0 0 -1
4332 2 0.04537972236689809 -14.216888106646119 -8.481685103447417 13.013296798959397 0 1 0
2573 1 0.0055284075793257045 -12.211883899368093 -10.184083703646207 15.241637332330855 0 0 -1
1728 1 0.007451013085456239 -9.352742715640431 -10.251591130939936 14.521407513091487 0 0 -1
4612 1 0.002182319732224127 -11.782489595516033 -13.356646392669276 11.279024077916274 0 0 -1
2601 2 0.021895519116072935 -13.802671909582829 -14.157106565866712 10.897352771771596 0 1 -1
1014 1 0.016344700614804496 -9.195224525377965 -10.765461065154401 9.050333764574924 0 1 -1
3347 3 -0.48617865713563785 -10.62175627511397 -8.733349905024202 11.659972359560458 0 0 -1
1016 1 0.29959406921650233 -10.881354100890036 -8.895924914792783 10.417157151001673 0 1 -1
3218 1 0.023270724514407495 -12.097774627414502 -11.776289981447567 13.307095079883846 0 1 -1
1036 2 -0.011158171056704778 -11.378011678985722 -8.061946543836514 9.83369948820505 0 1 -1
1015 1 -0.03336650432795577 -9.987539090842063 -9.89561569299094 9.691645836114057 0 1 -1
3155 1 -0.005980608128745221 -12.072574731595768 -13.083328157922873 12.75659140017416 0 1 -1
4308 1 -0.043361030900616986 -13.573885059988603 -8.104468284327632 12.308937410713243 0 1 0
3365 1 -0.021367841257112396 -12.869461804954891 -13.99433113749036 10.403097420880643 0 0 -1
3157 1 0.005841379102417908 -9.915571749270413 -11.461800161871597 14.682625252368547 0 1 -1
4318 2 0.029691059746685455 -8.382097300656902 -10.009733591211717 14.039399537434702 0 1 0
3156 1 -0.0005456705443896495 -12.456156662132027 -11.608810512748619 14.898889867654505 0 1 -1
1121 1 -0.01976873613889213 -13.459043209707332 -11.783467061206485 8.489801528833775 0 1 -1
4086 1 -0.003949922252375716 -13.099182807419359 -14.240973190021997 12.879726117607296 0 1 0
2746 1 -0.0024566294113512292 -13.233490033754196 -14.336052255442354 14.297773340976471 0 1 -1
3345 1 -0.017447402634817314 -14.835138990571842 -8.772602127345122 8.988134813799851 0 0 -1
1120 1 -0.008447392174272834 -14.460951692674001 -12.72261315825828 9.044206369617006 0 1 -1
2574 1 0.001502440484531839 -11.81502277594268 -9.018956722786026 15.508892955598993 0 0 -1
3470 2 0.034221670427681795 -9.818413533908808 -0.07619252806759924 9.224219773931049 0 0 0
4327 2 0.03596572180175057 -8.597838215309686 -3.2978524507923925 13.683553290598818 0 1 0
2513 2 -0.004232657369285905 -14.510860273801546 -7.008491601621441 7.796818408446333 0 0 -1
750 2 0.03060210616793045 -14.770657668574014 -5.943418187029065 12.949690991518414 1 0 -1
222 2 0.12503455975196512 -13.781900077942192 -3.901440335049875 7.884042670935754 0 0 -1
4283 1 -0.006066173448423012 -8.46335647517407 -6.656003500594187 14.617142522116835 0 1 0
4291 1 -0.00586725199146404 -14.046705658973185 -7.213409718880485 11.065939860555828 0 1 0
4329 2 0.04247757324271128 -11.942268691580098 -6.597906928246063 12.628083183223842 0 1 0
196 1 0.0009825081507833407 -12.665450172430312 -7.136938354967721 13.335277427410139 0 0 -1
1788 1 -0.03043160445971434 -13.341422529973478 -0.5588903712938649 13.183451930318578 1 0 -1
1783 1 0.24094304642227052 -14.848835156330592 -0.2790645877838678 13.141880739765979 1 0 -1
4302 1 0.011929345443019598 -9.621124400698314 -4.716762731102172 15.290649821762136 0 1 0
3609 1 0.27240116768423445 -9.994051242486073 -3.9005551528986278 7.858236719661649 0 0 0
2378 3 -0.4868606497333644 -10.101512874979413 -0.35502868509353114 13.12636682139563 1 0 -1
4285 1 0.032934247946509496 -8.22192892903439 -2.2878071383475476 11.059148058940545 0 1 0
197 1 -0.009184705305940004 -12.911138126290567 -6.856732849834739 14.446895354678313 0 0 -1
4288 1 0.017692853316449646 -12.900396139544574 -6.6759488981811765 10.928533529324218 0 1 0
3348 1 0.016146971762925337 -14.092317281112072 -3.8885128903063713 13.16767737663569 0 0 -1
4294 1 -0.020025260686330263 -8.84706577615458 -4.306012607991947 14.025460815753997 0 1 0
1643 2 0.037222242562524696 -8.823540420507555 -5.142011505089778 11.358434775174908 0 0 0
3504 1 0.22233283083368077 -8.000831864285356 -6.007701840307076 10.056685673600088 0 0 0
4095 1 0.15532309375227848 -11.391469710645222 -2.3782858011686994 8.768483324556788 0 0 0
4298 1 0.036878189996382524 -10.484105554872091 -5.617078369791498 10.547665600506617 0 1 0
4293 1 0.01821364939940381 -7.56125772578125 -0.9994331221508563 10.776021196964715 0 1 0
3853 1 0.017666265037004865 -7.618884930362207 -0.22339372231133048 9.553284140884271 1 0 -1
3357 2 0.026399064094963336 -11.813150623218121 -3.629834444899153 13.88164595439928 0 0 -1
4321 2 0.08535368889911309 -9.291495251453904 -2.237635599398496 11.236897183892056 0 1 0
4299 1 0.0247453345203497 -11.649719786472119 -6.04882469600455 10.66324159546537 0 1 0
4316 1 -0.002753506893726776 -9.424654352585911 -5.193578499628007 10.469495729502503 0 1 0
4100 3 -0.37056507521984794 -13.713721203193028 -1.9322962571879252 9.360095661501484 0 0 0
3505 3 -0.5010588675320564 -9.951260353064706 -2.913932533611753 8.998006049692373 0 0 0
1786 1 0.03573684209014187 -12.95676700762667 -1.9342815900812802 13.360044229106057 1 0 -1
726 1 -0.028080190842624805 -12.78802854498307 -3.15195157971716 13.49683024636378 1 0 -1
4099 1 0.249687500849505 -12.482845519525826 -1.3069724348223097 9.269208197150123 0 0 0
3503 1 0.012065161206684154 -8.010184349767032 -6.663184981755817 9.00772428566925 0 0 0
4286 1 -0.010811216293705874 -8.094958719800172 -5.407280513196747 13.83503051203427 0 1 0
1375 2 0.022363817332335906 -13.655656964701578 -2.3190768381965157 15.200473754436219 2 0 -2
2345 1 -0.005447564971359824 -8.645163610553752 4.140743281065989 -14.482214565487592 1 0 0
2408 1 0.016010295897764416 -9.04845824119549 5.527002708965158 -14.557133076485902 1 0 0
2150 1 -0.004975312958278341 -11.195351463213926 5.196864203062036 -14.206625110037901 1 -1 0
2271 1 -0.001813995375216081 -10.178636677438863 6.0781629743409855 -14.218196387325953 1 0 0
1530 1 -0.0016983619375915311 -11.424374268663065 3.9020251849452183 -15.025080673995292 1 0 0
1531 1 -0.004893852713950472 -10.63625954963006 2.8285224266102187 -15.212922773254151 1 0 0
2146 1 -0.008172411242105906 -12.354594803803128 6.0544521962111215 -13.968884609546482 1 -1 0