LAMMPS data file via write_data, version 29 Oct 2020, timestep = 1000 > cluster_extract v3.1 / 26 May 2023

1921 atoms
2903 bonds

3 atom types
3 bond types

-13.947162774644832 13.947162774644832 xlo xhi
-12.98599687371277 12.98599687371277 ylo yhi
-12.530807309839805 12.530807309839805 zlo zhi

Masses

 1   12.00000  #  C    
 2   1.00800   #  H    
 3   15.99900  #  O    

Bond Coeffs

 1  #  C-C
 2  #  C-H
 3  #  C-O

Atoms # charge

 1  1  -0.002269   -13.260242637   -12.603892359   12.529760250     -1    1   -4   #     C        Sp2
 2  1  -0.002446   -13.071762608   -11.230641372   -11.850334336    -1    1   -4   #     C        Sp3
 3  1   0.003122   -12.622121044   -8.857976951    -10.111867948    -1    1   -4   #     C        Sp2
 4  1   0.015219   -12.215970950   -11.383525158   -10.579506792    -1    1   -4   #     C        Sp2
 5  1   0.023110   -11.833210132   -10.022141508   -10.045262107    -1    1   -4   #     C        Sp2
 6  1   0.015011   -11.541547752   -12.541596126   -10.148468375    -1    1   -4   #     C        Sp2
 7  1  -0.000693   -10.472179583   -9.608532773    -9.929971622     -1    1   -4   #     C        Sp2
 8  1   0.005628   -10.165124077   -12.750815996   -9.511972080     -1    1   -4   #     C        Sp2
 9  1   0.006216   -9.362319666    -11.701034195   -8.889128732     -2    1   -5   #     C        Sp2
10  1   0.000890   -9.349305484    -10.340015461   -9.473131334     -1    1   -3   #     C        Sp2
11  1  -0.002237   -8.160548629    -9.425722363    -9.518704680     -1    1   -4   #     C        Sp2
12  1  -0.003740   -8.132624067    -11.820547593   12.288684417     -1    1   -5   #     C        Sp2
13  1  -0.004928   -7.177729522    -9.900788193    -8.593616097     -1    1   -4   #     C        Sp2
14  1  -0.005427   -6.723316993    -11.469028760   12.454344426     -1    1   -5   #     C        Sp2
15  1  -0.004885   -6.126956409    -12.289611927   -11.556147299    -1    1   -4   #     C        Sp2
16  1  -0.002300   -5.836047604    -9.486581139    -9.021673224     -1    1   -4   #     C        Sp2
17  1   0.002608   -4.798119264    -11.997804491   -10.970848257    -1    2   -4   #     C        Sp2
18  1  -0.003267   -4.507330205    -9.971947292    -8.644125319     -1    1   -3   #     C        Sp2
19  1   0.031765   -4.522571768    -12.338080486   -9.546625058     -1    2   -4   #     C        Sp2
20  1   0.004684   -3.876921243    -11.338524270   -8.702541729     -2    1   -5   #     C        Sp2
21  1   0.046641   -3.912494853    -11.333239926   -11.915152912    -2    0   -4   #     C        Sp2
22  1   0.003524   -3.736622456    -8.862970843    -11.802838099    -2    1   -4   #     C        Sp2
23  1  -0.000811   -3.626374883    -8.860789782    -8.533968747     -1    1   -4   #     C        Sp2
24  1  -0.048872   -3.178604835    -10.148446272   -11.405058205    -2    0   -4   #     C        Sp2
25  1   0.233370   -1.905200730    -10.463245218   -10.847706877    -2    1   -4   #     C        Sp2
26  3  -0.512930   -1.549146774    -11.919356777   -10.692493941    -1    0   -5   #     O        Sp2
27  1  -0.049938   -0.978876400    -9.513312272    -10.489768886    -2    1   -4   #     C        Sp2
28  1   0.237388   -0.195522262    -11.691660558   -10.128911699    -2    1   -4   #     C        Sp2
29  1  -0.044803    0.106658248    -10.335471313   -10.080990541    -1    1   -4   #     C        Sp2
30  1  -0.048080    0.793454495    -12.717726334   -9.990074044     -2    1   -4   #     C        Sp2
31  1  -0.007337    1.270682613    -11.715740044   -12.372654704    -2    2   -3   #     C        Sp2
32  1   0.008505    1.321557343    -9.672224932    -9.758412160     -1    1   -4   #     C        Sp2
33  1   0.015813    1.782258283    -12.823419671   -8.930162858     -2    1   -4   #     C        Sp2
34  1   0.023600    2.603851320    -11.732861064   -11.829413504    -1    1   -4   #     C        Sp2
35  1  -0.012295    2.597303095    -10.119103317   -9.953333979     -1    1   -4   #     C        Sp2
36  1   0.039235    3.039149115    -12.368305512   -9.407189529     -2    2   -3   #     C        Sp2
37  1   0.002409    3.200580997    -11.372095069   -10.421075281    -2    2   -3   #     C        Sp3
38  1   0.000191    3.461851003    -9.071462472    -9.533776663     -2    1   -4   #     C        Sp2
39  1   0.029418    4.309019101    -12.702424308   -8.852361842     -2    2   -3   #     C        Sp2
40  1   0.007598    4.898484041    -11.298000332   -10.728042547    -1    1   -4   #     C        Sp3
41  1  -0.002030    4.911212120    -9.013247096    -9.620586806     -2    1   -4   #     C        Sp2
42  1   0.025504    5.030770353    -11.770939985   -12.141114003    -2    2   -4   #     C        Sp2
43  1  -0.003785    5.501232690    -9.889958840    -10.674142083    -2    1   -4   #     C        Sp2
44  1   0.013984    5.440236024    -12.115627982   -9.531396005     -2    1   -4   #     C        Sp2
45  1   0.001028    6.403168553    -9.411255438    -11.580464004    -1    1   -4   #     C        Sp2
46  1  -0.002119    6.697630719    -12.059550500   -8.897535553     -2    1   -4   #     C        Sp2
47  1  -0.001605    7.217138475    -10.792271053   -8.483297881     -2    1   -4   #     C        Sp2
48  1  -0.000674    7.998886041    -9.890393635    -9.309430799     -2    1   -4   #     C        Sp2
49  1  -0.001644    9.089472469    -10.471335031   -9.995018195     -1    1   -4   #     C        Sp2
50  1   0.000999    9.303974058    -11.798814625   -10.548198276    -2    1   -4   #     C        Sp2
51  1  -0.002014   10.006300487    -9.302642847    -10.527925402    -1    1   -4   #     C        Sp2
52  1   0.000228   10.104579857    -11.368581858   -11.868429625    -2    1   -4   #     C        Sp3
53  1  -0.000787   10.538407023    -9.841836908    -11.739142250    -2    1   -4   #     C        Sp2
54  1  -0.003008   11.110501308    -12.571717952   -11.940884168    -2    1   -4   #     C        Sp2
55  1   0.018586   12.163742786    -10.378629708   -9.176596754     -2    1   -4   #     C        Sp1
56  1   0.002333   12.449549613    -12.292335427   -11.676985933    -2    1   -3   #     C        Sp2
57  1   0.008086   12.896758244    -10.100512007   -10.269064888    -2    1   -4   #     C        Sp2
58  1   0.003588   13.146893193    -10.949753291   -11.595742934    -2    1   -4   #     C        Sp3
59  1   0.005098   13.725547290    -8.797200604    -10.231159586    -2    1   -4   #     C        Sp3
60  1  -0.000902   -12.985225938   -5.823080425    -10.735811521     0    1   -5   #     C        Sp2
61  1  -0.001028   -12.763452779   -4.486004484    -11.109428867     0    1   -5   #     C        Sp2
62  1   0.000007   -11.816879430   -6.442956335    -10.515958535    -1    1   -4   #     C        Sp2
63  1  -0.001671   -11.678801638   -7.799778267    -10.080147098     0    1   -4   #     C        Sp2
64  1  -0.000543   -11.340089525   -4.331159595    -11.114362636    -1    1   -4   #     C        Sp2
65  1  -0.001064   -10.758085749   -5.592980997    -10.782776328    -1    1   -4   #     C        Sp2
66  1   0.000913   -10.323940831   -8.153947845    -9.942693625     -1    1   -4   #     C        Sp2
67  1  -0.000351   -9.428854167    -5.929787665    -10.695657968    -1    1   -4   #     C        Sp2
68  1   0.000119   -9.215000037    -7.317953171    -10.255639390    -1    1   -4   #     C        Sp2
69  1   0.000260   -8.603940555    -4.888910210    -11.329822476    -1    1   -4   #     C        Sp2
70  1  -0.001093   -8.022488967    -8.022981600    -9.976846885     -2    0   -4   #     C        Sp2
71  1   0.000567   -7.175870715    -4.941037456    -11.267102809    -2    0   -4   #     C        Sp2
72  1  -0.000941   -6.704919686    -7.357625499    -10.111668083    -2    0   -4   #     C        Sp2
73  1  -0.000532   -6.443709637    -6.024586299    -10.686066735    -2    0   -4   #     C        Sp2
74  1  -0.001126   -5.618523447    -8.140274549    -9.570561198     -1    1   -3   #     C        Sp2
75  1  -0.001734   -5.023782071    -5.348473015    -10.646410208    -1    1   -4   #     C        Sp3
76  1   0.000435   -4.751575406    -5.223819410    -8.910180784     -2    1   -4   #     C        Sp3
77  1  -0.000054   -4.245603380    -6.318723375    -11.425081629    -1    1   -4   #     C        Sp2
78  1  -0.000366   -4.187586030    -7.744547157    -9.401950041     -1    1   -4   #     C        Sp3
79  1  -0.000089   -3.674689423    -6.366131750    -8.755305468     -1    1   -4   #     C        Sp3
80  1  -0.002409   -3.461808693    -7.577336048    -10.986614478    -2    1   -4   #     C        Sp3
81  1   0.000832   -2.332217105    -6.182634173    -9.615711609     -1    1   -4   #     C        Sp2
82  1  -0.004909   -2.065249971    -7.210388860    -10.636507752    -2    1   -4   #     C        Sp2
83  1   0.000077   -1.496448072    -5.113934726    -9.306699934     -1    1   -4   #     C        Sp2
84  1   0.007200   -0.902541805    -8.035011585    -10.576117834    -2    1   -4   #     C        Sp2
85  1   0.000303   -0.614393980    -4.245814504    -10.385189461    -2    1   -4   #     C        Sp3
86  1  -0.001161    0.122360009    -5.075189502    -11.414600807    -1    1   -4   #     C        Sp2
87  1  -0.000817    0.386723380    -7.371717548    -10.276758976    -1    1   -4   #     C        Sp2
88  1  -0.003661    0.984089869    -6.199026319    -10.955702953    -1    1   -4   #     C        Sp2
89  1  -0.001434    1.159701450    -4.321181559    -12.198099382    -1    1   -4   #     C        Sp2
90  1   0.000551    1.377040617    -8.225413869    -9.750706223     -1    1   -4   #     C        Sp2
91  1  -0.000250    2.294941011    -5.633820581    -10.697577228    -1    1   -4   #     C        Sp2
92  1   0.002730    2.319124560    -4.984907933    -9.303953330     -1    1   -4   #     C        Sp2
93  1   0.000145    2.504375416    -4.703352163    -11.808084897    -1    1   -4   #     C        Sp2
94  1  -0.003190    2.723764327    -7.959245187    -9.161730746     -2    1   -4   #     C        Sp2
95  1  -0.000140    5.583695826    -7.973245775    -8.841238885     -2    1   -4   #     C        Sp2
96  1   0.001636    6.025360965    -5.086873348    -12.138712262    -1    1   -5   #     C        Sp2
97  1   0.000132    6.947818633    -7.515074961    -8.827041354     -2    1   -4   #     C        Sp2
98  1   0.000776    7.264867039    -6.882352775    -11.555869784    -2    1   -4   #     C        Sp2
99  1  -0.000268    7.265056576    -8.261456058    -11.105343611    -2    1   -4   #     C        Sp2
100 1   0.001452    7.260542025    -4.503323635    -11.540314692    -2    1   -4   #     C        Sp2
101 1   0.001583    7.917334873    -5.674205348    -10.981612283    -1    1   -5   #     C        Sp2
102 1  -0.001757    7.912592703    -8.422677021    -9.756207202     -1    1   -4   #     C        Sp3
103 1   0.000415    9.226555522    -5.479582191    -10.348302512    -1    1   -5   #     C        Sp2
104 1  -0.001112    9.421059912    -8.067596142    -10.126648862    -2    1   -5   #     C        Sp2
105 1  -0.000403    9.998133301    -6.736510545    -10.195953803    -1    1   -5   #     C        Sp2
106 1   0.000016   11.275294349    -6.629807764    -9.527833649     -1    1   -5   #     C        Sp2
107 1  -0.000060   11.771882065    -7.781467429    -8.741286897     -2    1   -4   #     C        Sp2
108 1  -0.000622   12.045613714    -5.434648535    -10.036841176    -1    1   -5   #     C        Sp2
109 1  -0.000985   12.112649719    -7.894383995    -12.157283927    -2    1   -4   #     C        Sp2
110 1  -0.001236   12.619332744    -5.563689320    -11.372429035    -1    1   -4   #     C        Sp2
111 1  -0.001945   13.160169164    -8.103385167    -8.910733838     -2    1   -4   #     C        Sp2
112 1  -0.001569   13.250041038    -7.799118461    -11.375664611    -2    1   -4   #     C        Sp2
113 1  -0.000852   13.753210322    -6.480232977    -11.233085354    -2    1   -4   #     C        Sp2
114 1   0.000800   -13.920754795   -3.576778291    -11.097114523     0    1   -5   #     C        Sp2
115 1  -0.000521   -12.465623466   -3.115453557    -8.374359333     -1    1   -4   #     C        Sp2
116 1  -0.000286   -11.539059502   -0.139580582    -9.708020481     -1    0   -5   #     C        Sp2
117 1   0.001116   -11.345068862   -2.601283960    -9.052273445     -1    1   -4   #     C        Sp2
118 1   0.001853   -11.461764987   -1.530077323    -10.130569730    -1    0   -5   #     C        Sp2
119 1   0.000133   -10.841132332   -1.819200885    -11.452412326    -2    0   -5   #     C        Sp2
120 1   0.000956   -10.491908781   -3.232954839    -11.511211528    -1    1   -4   #     C        Sp2
121 1  -0.000395   -10.258965699   -0.918029653    -12.486276546    -2    0   -5   #     C        Sp2
122 1   0.000111   -10.183109492   -3.353589436    -8.609877086     -1    1   -4   #     C        Sp2
123 1   0.000664   -9.183620664    -3.702411030    -11.987661586    -1    1   -4   #     C        Sp2
124 1   0.000300   -9.192997300    -0.387422726    -9.021599723      0    1   -3   #     C        Sp2
125 1   0.000491   -8.878580825    -3.015350639    -8.927001990     -1    1   -4   #     C        Sp2
126 1   0.000268   -8.655500270    -1.705419946    -9.325142624     -2    1   -4   #     C        Sp2
127 1   0.000604   -7.569785827    -3.602074272    -8.644478488     -2    0   -4   #     C        Sp2
128 1  -0.000164   -7.315594531    -1.594250950    -9.665001637     -2    1   -4   #     C        Sp2
129 1   0.000213   -7.073665646    -0.229282929    -9.892599542     -1    1   -4   #     C        Sp2
130 1   0.000049   -6.474420702    -2.417078177    -12.458177500    -1    1   -4   #     C        Sp2
131 1   0.000605   -6.598324690    -2.782882024    -9.291958205     -1    1   -4   #     C        Sp2
132 1   0.000725   -6.325953824    -3.682297712    -11.706603830    -1    1   -4   #     C        Sp2
133 1   0.001204   -5.471008197    -1.242595031    -12.493524000    -1    1   -4   #     C        Sp3
134 1   0.001200   -5.154915320    -2.835558784    -9.138085108     -2    0   -4   #     C        Sp2
135 1  -0.001192   -5.009170704    -4.000769049    -11.409749141    -2    1   -4   #     C        Sp2
136 1   0.000343   -4.811275880    -0.140275826    -11.258195909    -1    1   -4   #     C        Sp3
137 1  -0.000373   -4.802431834    -1.377854462    -8.978894157     -1    1   -4   #     C        Sp2
138 1   0.000846   -4.191128142    -3.840737133    -8.852795038     -1    1   -4   #     C        Sp2
139 1   0.000016   -3.884667497    -3.186581377    -11.963788447    -1    1   -4   #     C        Sp2
140 1   0.000979   -4.010441323    -0.777392281    -10.043520788    -1    1   -4   #     C        Sp2
141 1  -0.001296   -2.445067812    -3.480122573    -11.994814768    -2    1   -4   #     C        Sp2
142 1  -0.000404   -2.590404290    -0.868067448    -9.902701947     -1    0   -4   #     C        Sp2
143 1   0.001213   -1.594464824    -3.125547020    -10.880752532    -2    1   -4   #     C        Sp2
144 1   0.001604   -1.570421162    -1.918713729    -10.160990979    -2    1   -4   #     C        Sp2
145 1  -0.000205   -0.413741571    -2.190543099    -9.293417562     -2    1   -3   #     C        Sp2
146 1   0.002203    0.369959989    -3.336053613    -9.614372546     -2    1   -4   #     C        Sp2
147 1   0.000909    1.518936703    -3.819019333    -8.853367988     -1    1   -4   #     C        Sp2
148 1  -0.000407    2.928790825     0.105541699    -11.031667872    -2    0   -4   #     C        Sp2
149 1  -0.000444    3.607949981    -0.842867953    -8.773562777     -1    1   -4   #     C        Sp2
150 1   0.000714    3.650742541    -3.859754294    -12.319572702    -1    1   -4   #     C        Sp2
151 1   0.000163    3.750774243    -0.829018985    -10.252625792    -1    1   -4   #     C        Sp2
152 1   0.000358    4.770871405    -1.464051012    -11.050629195    -1    1   -4   #     C        Sp2
153 1  -0.000531    5.627533308    -2.301877647    -8.952946517     -2    1   -4   #     C        Sp2
154 1  -0.000044    5.973934108    -1.950575401    -10.358865192    -2    1   -4   #     C        Sp2
155 1  -0.001025    7.381258503    -1.935141662    -10.830965513    -3    0   -5   #     C        Sp2
156 1   0.000960    7.916698563    -3.140834641    -11.430303835    -2    1   -4   #     C        Sp2
157 1  -0.002045    8.313460334    -0.762932160    -10.624118631    -2    1   -4   #     C        Sp2
158 1   0.000652    8.578599241    -3.530545432    -8.799139970     -2    1   -4   #     C        Sp2
159 1   0.000438    9.188764732    -2.849312036    -12.142583398    -3    0   -5   #     C        Sp2
160 1   0.000388    9.505837061    -4.253912344    -9.558237060     -1    1   -4   #     C        Sp2
161 1  -0.001051    9.716885918    -1.075907371    -10.748154710    -2    1   -4   #     C        Sp2
162 1   0.000021   10.319509543    -2.306468160    -11.356243728    -2    1   -4   #     C        Sp3
163 1   0.000720   10.611105900    -3.258945558    -9.947790491     -1    1   -5   #     C        Sp3
164 1   0.000887   10.642093959    -2.412117637    -8.655252737     -3    0   -5   #     C        Sp2
165 1   0.000175   11.597674604    -1.403589028    -12.218260814    -2    1   -4   #     C        Sp3
166 1  -0.000216   11.895062730    -0.368918555    -11.188498513    -2    1   -4   #     C        Sp2
167 1  -0.000020   11.940373793    -3.972376307    -9.765930060     -3    0   -5   #     C        Sp2
168 1   0.000742   13.201560161    -3.328428040    -12.371466348    -1    1   -5   #     C        Sp2
169 1   0.000451   13.241365404    -3.293894512    -9.841765546     -3    0   -5   #     C        Sp2
170 1   0.000806   -13.881523572   -2.740663951    -8.689778367     -2    0   -5   #     C        Sp2
171 1  -0.000683   -13.869268803    4.212822525    -9.856236390     -1    0   -5   #     C        Sp2
172 1  -0.001233   -13.347974942    2.914813494    -9.487499802     -1    0   -4   #     C        Sp2
173 1  -0.000872   -12.061488696    2.489099519    -10.080618525    -1    0   -5   #     C        Sp2
174 1  -0.000071   -11.683869905    1.140262685    -10.516191155    -2    0   -5   #     C        Sp2
175 1   0.002162   -11.103141843    3.480843405    -10.553982447    -1    0   -5   #     C        Sp2
176 1  -0.000484   -10.566062986    1.401975230    -11.403714624    -2    0   -5   #     C        Sp2
177 1   0.000777   -10.538800849    0.160780182    -8.682968281     -1    0   -5   #     C        Sp2
178 1   0.002724   -10.190595405    2.773609176    -11.434808270    -1    0   -5   #     C        Sp2
179 1  -0.000050   -9.786628305     0.477735927    -12.311158158    -1    0   -5   #     C        Sp2
180 1  -0.001109   -8.928258894     3.284696327    -12.160227403    -1    1   -3   #     C        Sp3
181 1  -0.000812   -8.248840124     0.494532343    -9.544403428      0    1   -3   #     C        Sp2
182 1   0.000224   -8.089271071     1.969979658    -9.455217381     -2    0   -5   #     C        Sp2
183 1   0.001306   -7.822043522     3.831909501    -11.049798903    -1    0   -4   #     C        Sp3
184 1  -0.000637   -7.214791747     2.681337520    -10.390750944    -2    0   -4   #     C        Sp2
185 1   0.000493   -6.153025404     1.868719104    -10.869369928    -2    0   -4   #     C        Sp2
186 1  -0.000110   -6.059721059     0.493110550    -10.608682594    -2    0   -4   #     C        Sp2
187 1   0.000280   -5.002935905     2.258723191    -11.801497844    -1    1   -4   #     C        Sp3
188 1  -0.001285   -4.542263237     4.303704658    -10.387580606    -2    1   -4   #     C        Sp2
189 1   0.000050   -4.227806064     0.988664356    -11.986480185    -2    1   -4   #     C        Sp2
190 1   0.000355   -3.972941105     3.129049993    -11.026842397    -1    1   -4   #     C        Sp2
191 1  -0.000057   -3.129663246     2.344559004    -8.946725117     -1    0   -4   #     C        Sp2
192 1  -0.000018   -2.835727348     2.398072744    -10.420097124    -2    1   -4   #     C        Sp2
193 1  -0.000627   -2.321575072     0.033659030    -8.791402582     -2    1   -4   #     C        Sp2
194 1   0.000184   -1.744373533     1.670290340    -12.460576625    -2    1   -4   #     C        Sp2
195 1   0.001386   -1.515399810     2.231368014    -11.117221195    -2    0   -4   #     C        Sp2
196 1   0.000886   -0.322165949     2.063111156    -10.319044242    -2    1   -4   #     C        Sp2
197 1   0.001455    0.114604593     2.598545003    -9.037935318     -2    1   -4   #     C        Sp2
198 1  -0.000330    0.382201466     4.020193826    -8.758508525     -2    1   -4   #     C        Sp2
199 1   0.000223    0.944544104     1.588080145    -11.045899184    -2    1   -4   #     C        Sp3
200 1  -0.000477    1.746513236     0.507406792    -10.255907789    -2    0   -4   #     C        Sp2
201 1  -0.000345    1.657452161     0.458266408    -8.797249012     -2    0   -4   #     C        Sp2
202 1   0.001087    2.021950111     2.640333934    -10.905838872    -2    1   -4   #     C        Sp2
203 1   0.000330    2.558141200     3.531575724    -9.968751017     -2    1   -4   #     C        Sp2
204 1   0.000286    2.433963727     3.121770983    -12.138327806    -2    1   -4   #     C        Sp2
205 1   0.000363    3.397086551     0.281902392    -12.448865713    -2    0   -4   #     C        Sp3
206 1  -0.002072    3.246700487     4.328977202    -12.041461186    -2    1   -4   #     C        Sp2
207 1  -0.000973    3.618321428     4.192448200    -10.648108094    -2    1   -4   #     C        Sp2
208 1  -0.007327    4.919958679     3.520269263    -8.595469659     -2    1   -4   #     C        Sp2
209 1  -0.000987    5.650332192     1.100831936    -11.873544112    -2    1   -4   #     C        Sp1
210 1  -0.000125    6.776029110     0.949041934    -11.180818506    -2    1   -4   #     C        Sp1
211 1  -0.047882    7.227551843     3.954920622    -8.806150740     -2    1   -4   #     C        Sp2
212 1  -0.000144    7.922411648     0.650573911    -10.452394902    -2    1   -4   #     C        Sp2
213 1   0.045525    8.548215711     3.692975356    -8.445634137     -2    0   -4   #     C        Sp2
214 1  -0.002761    8.958006230     1.740243861    -10.132205289    -2    1   -4   #     C        Sp2
215 1   0.008559    9.297599949     3.065930014    -9.516204072     -2    0   -4   #     C        Sp2
216 1   0.000521   10.153542963     1.373075700    -10.895673041    -2    1   -4   #     C        Sp2
217 1   0.019143   10.252762367     3.729941610    -11.564559468    -2    1   -4   #     C        Sp2
218 1   0.023822   10.420780986     3.870973593    -10.118358406    -2    0   -4   #     C        Sp2
219 1  -0.001858   10.693830323     0.050727860    -10.545041400    -2    1   -4   #     C        Sp2
220 1  -0.006504   10.798942563     2.318598576    -11.932974828    -2    1   -4   #     C        Sp3
221 1  -0.001841   12.382464076     2.064661467    -11.736731272    -2    1   -4   #     C        Sp2
222 1  -0.001448   12.835430239     0.706739970    -11.638517118    -2    1   -4   #     C        Sp2
223 1  -0.002485   13.430664967     3.031156180    -12.058516410    -2    1   -4   #     C        Sp2
224 1   0.000638   13.720749551     4.323861547    -11.289239662    -2    1   -4   #     C        Sp2
225 1  -0.000607   -13.234936246    5.343744339    -9.135069191     -1    0   -4   #     C        Sp2
226 1   0.011917   -12.787774931    8.103943667    -10.722133635    -1    0   -3   #     C        Sp2
227 1   0.005183   -11.995987522    5.803265167    -9.763295603     -1    0   -4   #     C        Sp2
228 1   0.005389   -11.900420896    7.245478874    -9.956931417     -1    0   -4   #     C        Sp2
229 1   0.006497   -10.897254410    4.887581258    -10.151473158    -2    1   -4   #     C        Sp2
230 1   0.000356   -10.629845141    7.776425401    -9.465049968     -1    0   -4   #     C        Sp2
231 1   0.007177   -9.595769161     5.582830975    -10.121867263    -2    1   -4   #     C        Sp2
232 1   0.001514   -9.456379076     6.935529697    -9.509340049     -2    1   -4   #     C        Sp2
233 1  -0.000770   -8.329030493     7.405689690    -8.781851617     -2    1   -4   #     C        Sp2
234 1  -0.001140   -8.314288364     4.859798805    -10.023120404    -2    1   -4   #     C        Sp2
235 1  -0.001896   -7.736794712     5.011715223    -8.702598695     -1    1   -4   #     C        Sp2
236 1  -0.001534   -6.595422427     4.528570817    -11.998495058    -1    1   -4   #     C        Sp3
237 1  -0.002409   -6.590486496     7.393689891    -11.434347857    -1    0   -5   #     C        Sp2
238 1  -0.000300   -5.621412020     6.489996536    -10.694899553    -2    0   -4   #     C        Sp2
239 1  -0.001780   -5.530628814     5.136206495    -11.082925478    -1    1   -4   #     C        Sp2
240 1  -0.007491   -4.637098223     7.328480235    -9.997679024     -1    0   -5   #     C        Sp2
241 1   0.005718   -3.997287523     7.054652397    -8.752560718     -1    1   -4   #     C        Sp2
242 1  -0.000375   -4.117002110     4.603961682    -8.994353861     -2    1   -4   #     C        Sp2
243 1  -0.000866   -2.379601409     8.531803672    -11.551889019    -1    0   -4   #     C        Sp2
244 1   0.000951   -2.282840753     4.962778130    -12.114585180    -2    1   -4   #     C        Sp1
245 1  -0.000707   -1.756983668     5.323043434    -11.027568160    -2    1   -4   #     C        Sp1
246 1  -0.001612   -1.344709196     8.337608369    -10.519367896    -1    0   -4   #     C        Sp2
247 1  -0.001762   -1.185455834     5.756756785    -9.895167584     -2    1   -4   #     C        Sp2
248 1  -0.001726   -0.963103518     7.181748050    -9.740280922     -1    0   -4   #     C        Sp2
249 1  -0.000159   -0.784875038     4.913772488    -8.523558487     -2    1   -4   #     C        Sp3
250 1  -0.001702   -0.238455336     7.397567866    -8.487503891     -2    1   -4   #     C        Sp2
251 1  -0.000917    1.827530699     4.320965136    -8.818217262     -2    1   -4   #     C        Sp3
252 1   0.004558    2.755006301     7.983052043    -12.219159590    -2    0   -4   #     C        Sp2
253 1   0.000767    3.528298461     6.805826579    -12.123826332    -2    1   -4   #     C        Sp2
254 1  -0.000458    3.910309578     5.894803602    -8.863948352     -2    0   -4   #     C        Sp2
255 1   0.010088    4.635568802     4.620902107    -9.661280239     -2    1   -4   #     C        Sp3
256 1   0.003842    4.862795244     6.770224390    -8.532176179     -2    0   -4   #     C        Sp1
257 1  -0.005942    4.890780744     6.782390422    -11.698722785    -2    1   -4   #     C        Sp2
258 1   0.009530    5.381322929     7.958369214    -11.269446110    -3    1   -4   #     C        Sp2
259 1   0.043479    5.783330575     5.659639094    -11.618839359    -2    1   -4   #     C        Sp2
260 1  -0.074801    5.823439713     5.064283266    -10.399896103    -2    0   -4   #     C        Sp2
261 1   0.006147    6.575092795     8.098474075    -10.671565160    -2    0   -5   #     C        Sp2
262 1   0.025128    6.820463067     7.996143923    -9.261415949     -2    1   -4   #     C        Sp2
263 1  -0.057262    6.998932848     5.589446567    -12.435687718    -2    1   -4   #     C        Sp2
264 1   0.246304    6.980637536     4.874409535    -9.816914340     -2    1   -4   #     C        Sp2
265 1   0.016465    7.726673398     8.443055955    -11.364890848    -2    0   -4   #     C        Sp2
266 1   0.014936    8.059091034     8.537942724    -9.018789782     -2    0   -5   #     C        Sp2
267 1   0.234360    8.199973191     5.339833663    -11.752295537    -2    1   -4   #     C        Sp2
268 3  -0.508940    8.221705166     5.624225603    -10.265537038    -2    1   -4   #     O        Sp2
269 1  -0.039005    9.232641446     4.476153953    -12.333050322    -2    1   -4   #     C        Sp2
270 1   0.003972   10.171644916     8.525305165    -10.396596789    -2   -1   -4   #     C        Sp2
271 1   0.019127   10.849848718     7.506122565    -9.531868350     -3    1   -4   #     C        Sp2
272 1   0.019512   11.241285836     4.945176658    -9.538596651     -2    0   -4   #     C        Sp2
273 1   0.012140   11.557524542     6.344782811    -10.121252570    -2    0   -3   #     C        Sp2
274 1  -0.004940   11.934783744     4.497575617    -8.352634916     -3    1   -4   #     C        Sp2
275 1  -0.003951   12.821757760     6.627595521    -10.792799576    -2    0   -4   #     C        Sp2
276 1   0.009623   13.267431350     5.573907679    -11.779401138    -3    1   -4   #     C        Sp2
277 1   0.003175   13.660243261     7.882647902    -10.943782187    -2    0   -3   #     C        Sp2
278 1   0.003981   -13.886161044   12.158923573    -10.530028535    -1    0   -4   #     C        Sp2
279 1   0.006720   -12.733450542   10.266229362    -12.074796151    -1    0   -3   #     C        Sp2
280 1   0.009405   -12.492448790   12.274306768    -10.125007457    -1    0   -5   #     C        Sp2
281 1  -0.001378   -12.179769016   11.100358031    -9.297762608     -1    0   -5   #     C        Sp2
282 1   0.024919   -11.902933541    9.270216959    -11.230975653    -1    0   -3   #     C        Sp3
283 1  -0.005913   -11.288650202   10.060938464    -9.956415142     -1    0   -4   #     C        Sp3
284 1  -0.002067   -10.664745357    9.095853061    -8.751790441     -1    0   -4   #     C        Sp3
285 1  -0.037165   -10.360574168    9.089146430    -11.833211952    -1    0   -3   #     C        Sp2
286 1  -0.000037   -10.071950642   10.920985144    -10.388242843    -1    0   -4   #     C        Sp2