LAMMPS data file via write_data, version 2 Aug 2023, timestep = 100, units = real > cluster_extract v3.0 / 24 May 2023

5957 atoms

2 atom types

-18.42782357152664 18.42782357152664 xlo xhi
-19.926204515048486 19.926204515048486 ylo yhi
-22.723606270143904 22.723606270143904 zlo zhi

Masses

 1   12.00000  #  C    
 2   1.00800   #  H    

Atoms # charge

 1  2   0.019534   -15.364877805   19.781065927    -17.932467596     1   -1    0   #     H   Terminal
 2  2   0.019346   -15.256042833   -15.711654999   -20.757626999     0    0    0   #     H   Terminal
 3  2   0.019832   -13.849147986   -17.780186337   -19.027536521     1    0    0   #     H   Terminal
 4  2   0.017770   -14.506266992   -14.943408713   -18.505494458     0    0    0   #     H   Terminal
 5  2   0.015446   -13.822119596   -15.417573751   22.555929256      0    0   -1   #     H   Terminal
 6  1  -0.020936   -13.669865737   -18.786329942   -19.370475622     1    0    0   #     C        Sp2
 7  1  -0.010104   -12.570194626   -18.625577779   -20.296861860     1    0    0   #     C        Sp2
 8  2   0.017274   -12.023256020   -17.675307883   -20.159994515     1    0    0   #     H   Terminal
 9  1  -0.019142   -12.023270434   -19.288203541   -21.434453030     1    0    0   #     C        Sp2
10  2   0.015599   -11.090313107   -19.125184420   -22.084258380     1    0    0   #     H   Terminal
11  2   0.015494   -9.993490566    -16.608693972   -22.174617087     0    0    0   #     H   Terminal
12  1  -0.019425   -10.613204851   -15.728675519   -22.099774644     0    0    0   #     C        Sp2
13  2   0.018211   -8.788749426    -18.520724844   -20.188955685     0    0    1   #     H   Terminal
14  1  -0.020964   -8.110989829    -19.111938024   -20.803928751     0    0    1   #     C        Sp2
15  1  -0.016308   -7.756131795    -18.773328626   -18.456153712     0    0    1   #     C        Sp2
16  1  -0.012007   -7.171523514    -18.647514896   -21.695878845     0    0    1   #     C        Sp2
17  2   0.013313   -7.507869326    -17.565089757   -21.880152895     0    0    1   #     H   Terminal
18  2   0.016926   -7.404737614    -18.050519475   -19.251627863     0    0    1   #     H   Terminal
19  1  -0.020834   -6.428953810    -19.448692573   -22.648770178     0    0    1   #     C        Sp2
20  2   0.016793   -3.959860097    -16.665212217   -19.230585004     0    0    0   #     H   Terminal
21  2   0.015483   -4.813685067    -17.090511429   -21.840443008     0    0    0   #     H   Terminal
22  1  -0.017823   -4.740018941    -16.053863119   -19.839544476     0    0    0   #     C        Sp2
23  1  -0.018581   -4.350370127    -16.181376079   -21.333035886     0    0    0   #     C        Sp2
24  2   0.016221   -3.647702465    -19.731677412   -19.074416160     0    1    1   #     H   Terminal
25  2   0.022458   -1.628662713    -15.636343329   -22.705983873     0    0    0   #     H   Terminal
26  1  -0.021949    0.104668516    -16.280014834   -19.473947036     0    0   -2   #     C        Sp2
27  2   0.018016   -0.389634382    -17.494691393   -21.857415450     0    1    0   #     H   Terminal
28  2   0.016206    0.286987049    -17.204010108   -19.834777882     0    0   -2   #     H   Terminal
29  2   0.017268    2.111649231    -16.471619210   -18.747000719     0    0    1   #     H   Terminal
30  2   0.014247    2.412596584    -18.240639823   -20.371613074     0    0    1   #     H   Terminal
31  1  -0.011541    3.178951649    -16.557544035   -19.153093707     0    0    1   #     C        Sp2
32  1  -0.017956    3.275687667    -17.524043201   -20.253659683     0    0    1   #     C        Sp2
33  1  -0.024532    4.209487264    -15.898769558   -18.563793868     0    0    1   #     C        Sp2
34  2   0.021066    4.113711703    -19.013121168   -22.477826147     0    1    1   #     H   Terminal
35  1   0.004410    4.334101109    -17.544576731   -21.209696014     0    0    1   #     C        Sp2
36  1  -0.035936    4.262838424    -17.950797005   -22.543051143     0    0    1   #     C        Sp3
37  1   0.004564    5.395006836    -16.214776047   -19.230153215     0    0    1   #     C        Sp2
38  1  -0.006077    5.529320119    -16.996901646   -20.694415063     0    0    1   #     C        Sp2
39  2   0.022765    6.430357269    -18.449495842   -18.541436691     0    1    1   #     H   Terminal
40  1  -0.020394    6.469073003    -16.630854040   -18.326979082     0    0    1   #     C        Sp2
41  1  -0.017976    6.760086230    -19.497823821   -18.520614990     0    1    1   #     C        Sp2
42  1  -0.007607    6.673520710    -16.428359928   -21.245542121     0    0    1   #     C        Sp2
43  1  -0.014497    6.803605519    -19.689916367   -22.083513690     0    1    1   #     C        Sp2
44  1  -0.018725    7.870140934    -16.500580013   -18.873980668     0    0    1   #     C        Sp2
45  1  -0.012748    7.771754354    -16.968146693   -22.182951228     0    0    1   #     C        Sp3
46  1  -0.015163    7.563457835    -19.378233415   -21.035547777     0    1    1   #     C        Sp2
47  2   0.015959    8.065567226    -18.026726119   -22.469680669     0    0    1   #     H   Terminal
48  1   0.000762    7.791164860    -16.086496849   -20.212338707     0    0    1   #     C        Sp2
49  2   0.019470    8.580985349    -16.358237965   -17.948133065     0    0    1   #     H   Terminal
50  2   0.018141    8.614643853    -18.889461417   -21.238061014     0    1    1   #     H   Terminal
51  1  -0.017249    9.009712117    -15.880358586   -22.151693568     0    0    1   #     C        Sp2
52  1  -0.004492    9.141283307    -15.582039413   -20.768793526     0    0    1   #     C        Sp2
53  2   0.019415   10.262627301    -17.191627032   -19.170308056     0    1    1   #     H   Terminal
54  1  -0.025836   10.603050862    -19.837019440   -21.757323925    -1    0    1   #     C        Sp2
55  2   0.023044   11.613372655    -19.555233621   -21.619996352    -1    0    1   #     H   Terminal
56  2   0.011315   12.830244949    -16.310574055   -21.192466714     0    1    1   #     H   Terminal
57  1  -0.017639   13.002510157    -17.227430591   -20.318416142     0    1    1   #     C        Sp2
58  1  -0.000267   13.137931930    -17.283286824   -18.950311579     0    1    1   #     C        Sp2
59  1  -0.024570   13.577327006    -18.835828453   -18.479496740     0    1    1   #     C        Sp2
60  2   0.015899   13.376327583    -17.161661433   -22.619907488     0    1    1   #     H   Terminal
61  1  -0.003322   13.854994790    -18.128785740   -21.116917551     0    1    1   #     C        Sp2
62  1  -0.025719   13.963755075    -17.980313958   22.715640795      0    1    0   #     C        Sp2
63  1   0.003724   14.564084438    -19.505071023   -19.024200867     0    1    1   #     C        Sp2
64  1   0.000145   14.530651601    -19.105294686   -20.535076973     0    1    1   #     C        Sp2
65  2   0.019935   15.278983046    -16.477165868   -19.694343472    -1    0    1   #     H   Terminal
66  1  -0.008263   15.544280635    -19.594051069   -21.504811545     0    1    1   #     C        Sp2
67  1  -0.019420   15.812045497    -15.665543556   -19.349936059    -1    0    1   #     C        Sp2
68  2   0.012799   15.713062670    -15.899195729   -21.661127385    -1    0    1   #     H   Terminal
69  1  -0.029960   16.856894987    -15.959714348   -21.379471694    -1    0    1   #     C        Sp3
70  2   0.018992   16.866358002    -17.165206350   -21.362944141    -1    0    1   #     H   Terminal
71  1  -0.001228   18.413327932    -13.818163777   -21.709625238    -1    0    1   #     C        Sp2
72  1  -0.001997   -18.182003194   -13.746296688   -20.441663644     0    0    1   #     C        Sp2
73  1   0.001242   -17.375786818   -13.424393498   -22.625834555     0    0    1   #     C        Sp2
74  1  -0.013146   -17.161109773   -13.041958733   -18.529508084     0    0    1   #     C        Sp2
75  2   0.014826   -16.003228831   -12.830841804   -18.459914510     0    0    1   #     H   Terminal
76  1   0.002312   -17.112850401   -13.591385560   -19.934472322     0    0    1   #     C        Sp2
77  1  -0.013568   -16.097748160   -13.053515060   -22.030237596     0    0    1   #     C        Sp2
78  1  -0.019306   -15.979337606   -12.933751368   -20.636505839     0    0    1   #     C        Sp2
79  2   0.013795   -15.045776587   -12.672318119   -22.283197340     0    0    1   #     H   Terminal
80  2   0.014958   -14.978450966   -12.888299305   -20.012432341     0    0    1   #     H   Terminal
81  2   0.013721   -14.276589052   -11.279069893   -22.237697867    -1   -1    1   #     H   Terminal
82  1  -0.012933   -14.183538355   -15.540114273   -20.509782410     0    0    0   #     C        Sp2
83  1  -0.021246   -13.772259240   -15.135321408   -19.287025798     0    0    0   #     C        Sp2
84  1  -0.016386   -13.329282727   -15.319442180   -21.723526502     0    0    0   #     C        Sp2
85  1   0.003240   -12.396930161   -14.520676088   -19.151421951     0    0    0   #     C        Sp2
86  2   0.016615   -12.400222994   -12.610052740   22.497867424     -1   -1    0   #     H   Terminal
87  1   0.002190   -11.885449218   -15.364296713   -21.373426256     0    0    0   #     C        Sp2
88  1  -0.002660   -11.560659626   -14.493973567   -20.224698246     0    0    0   #     C        Sp2
89  1  -0.000176   -11.225991572   -12.676874532   -18.223608227     0    0    0   #     C        Sp2
90  1  -0.004055   -10.517520351   -13.561210235   -20.423331842     0    0    0   #     C        Sp2
91  1  -0.000035   -10.288911451   -12.550567447   -19.432005489     0    0    0   #     C        Sp2
92  1  -0.018617   -10.160852888   -14.624689831   22.518317238      0    0   -1   #     C        Sp2
93  1   0.002001   -10.103239074   -13.543930701   -21.795075546     0    0    0   #     C        Sp2
94  1  -0.017085   -9.569306551    -12.217718417   -21.869102491     0    0    0   #     C        Sp2
95  1  -0.014160   -9.223130834    -11.447283286   -19.487082935     0    0    0   #     C        Sp2
96  1  -0.014206   -9.097177662    -11.159461100   -20.852784113     0    0    0   #     C        Sp2
97  2   0.023895   -8.575001835    -13.613344247   -20.063404578     0    0    0   #     H   Terminal
98  1  -0.016601   -7.778993084    -13.080857074   -19.530191873     0    0    0   #     C        Sp2
99  2   0.015272   -7.712193848    -11.474046079   -22.238625397     0    0    0   #     H   Terminal
100 1  -0.014688   -6.966204798    -13.343584689   -18.380235098     0    0    0   #     C        Sp2
101 1  -0.016817   -6.843300911    -12.213915155   -21.913153487     0    0    0   #     C        Sp2
102 1   0.003361   -6.708431864    -13.009092761   -20.776358011     0    0    0   #     C        Sp2
103 1  -0.001837   -5.845452985    -14.224535591   -18.284372150     0    0    0   #     C        Sp2
104 1  -0.002971   -5.567708361    -13.930546539   -20.739500973     0    0    0   #     C        Sp2
105 1   0.002923   -5.352530468    -14.793704387   -19.711986018     0    0    0   #     C        Sp2
106 1  -0.002750   -4.753383264    -14.242546698   -21.865249756     0    0    0   #     C        Sp2
107 1   0.003566   -3.605753750    -15.089121417   -21.872163898     0    0    0   #     C        Sp2
108 2   0.023621   -3.617640398    -12.387026191   -21.646524834     0    0    1   #     H   Terminal
109 1  -0.016700   -3.138683451    -11.495843954   -21.704521721     0    0    1   #     C        Sp2
110 1  -0.018758   -2.396093600    -14.762738394   22.706784919      0    0   -1   #     C        Sp2
111 2   0.018395   -1.290997051    -11.665065943   -20.599889167     0    0    1   #     H   Terminal
112 2   0.019117   -1.053772485    -13.076214539   -21.347459718     0    1    0   #     H   Terminal
113 1  -0.016472   -0.050925829    -13.496156155   -21.864046392     0    1    0   #     C        Sp2
114 1   0.000600    0.292415580    -15.076259628   -20.108262205     0    0   -2   #     C        Sp2
115 1  -0.001798    0.493999605    -14.862095691   -21.623053860     0    1    0   #     C        Sp2
116 1   0.002432    1.050270251    -13.869061878   -19.493921785     0    0   -2   #     C        Sp2
117 1  -0.019197    2.281635018    -13.328855430   -19.614690722     0    0   -2   #     C        Sp2
118 1  -0.017456    2.496686621    -12.167191172   -18.709628445     0    0   -2   #     C        Sp2
119 2   0.016821    2.951393652    -13.307285004   -20.492049844     0    0   -2   #     H   Terminal
120 2   0.011266    3.596813120    -11.801483091   -19.065519570     0    0   -2   #     H   Terminal
121 2   0.018471    4.413655853    -15.279839603   -22.111437729     1    1    1   #     H   Terminal
122 2   0.013127    5.293163164    -11.363379826   -18.739455642     0    1    0   #     H   Terminal
123 2   0.019192    7.859239430    -14.371512866   -19.132907602     0    0    1   #     H   Terminal
124 1  -0.011758    8.876933210    -13.804686132   -19.162057493     0    0    1   #     C        Sp2
125 1  -0.018274    9.110217185    -12.633393144   -18.485628437     0    0    1   #     C        Sp2
126 1  -0.002226    9.666681687    -14.187596439   -20.330045074     0    0    1   #     C        Sp2
127 1   0.006980   10.468760914    -12.060214886   -18.675874936     0    0    1   #     C        Sp2
128 1  -0.000181   10.894408578    -13.471446144   -20.597338255     0    0    1   #     C        Sp2
129 1   0.000659   11.345371063    -12.443965945   -19.833501942     0    0    1   #     C        Sp2
130 1  -0.014398   12.081778753    -13.912606189   -21.528162603     0    0    1   #     C        Sp3
131 1   0.000301   12.663130339    -12.005655075   -19.971492611     0    0    1   #     C        Sp2
132 2   0.014446   12.344442647    -15.061839120   -21.691400899     0    0    1   #     H   Terminal
133 1   0.006980   13.142550633    -13.021673581   -20.875738918     0    0    1   #     C        Sp2
134 1   0.003093   13.207558021    -11.480045220   -18.810737687     0    0    1   #     C        Sp2
135 1  -0.023508   14.445630660    -13.316968411   -21.056327921     0    0    1   #     C        Sp2
136 1  -0.017469   14.512117417    -11.958970827   -18.836151212     0    0    1   #     C        Sp2
137 2   0.016618   14.854402354    -14.233353556   -21.399546815     0    0    1   #     H   Terminal
138 1  -0.008947   15.080524194    -12.506911226   -19.919073902     0    0    1   #     C        Sp2
139 2   0.015391   14.699447530    -11.709021220   -17.714077330     0    0    1   #     H   Terminal
140 2   0.017387   16.195224208    -12.562944113   -20.137460262     0    0    1   #     H   Terminal
141 2   0.015846   16.390456519    -14.275649201   -22.065451700    -1    0    1   #     H   Terminal
142 1   0.004967   16.891551209    -15.450784612   -20.003915794    -1    0    1   #     C        Sp2
143 1  -0.000461   17.305000114    -13.879323637   -18.142267376    -1    0    1   #     C        Sp2
144 1  -0.010475   17.330492711    -14.709980854   -22.099798658    -1    0    1   #     C        Sp3
145 1  -0.001845   17.668471718    -14.429590840   -19.542185145    -1    0    1   #     C        Sp2
146 1  -0.003492   -17.673707958   -7.180150720    -20.413513743     1   -1    1   #     C        Sp2
147 1  -0.016672   -17.707017155   -8.328907206    -22.666462891     1   -1    1   #     C        Sp2
148 1  -0.000918   -17.540364212   -7.049785892    -21.976935408     1   -1    1   #     C        Sp2
149 2   0.016727   -13.320514146   -9.015101658    -21.548999927    -1   -1    1   #     H   Terminal
150 2   0.013131   -13.721319144   -7.559732535    -18.448797847     0    0    1   #     H   Terminal
151 1  -0.014294   -13.395076098   -10.811370109   -22.690002508    -1   -1    1   #     C        Sp2
152 1  -0.033772   -13.262314867   -9.275377044    22.680099345     -1   -1    0   #     C        Sp3
153 1  -0.015344   -12.891753167   -6.627686588    -18.577357788     0    0    1   #     C        Sp2
154 2   0.018834   -8.840027298    -10.939376744   -18.527210603     0    0    0   #     H   Terminal
155 2   0.017644   -8.916219536    -10.069647624   -21.045439272     0    0    0   #     H   Terminal
156 2   0.017353   -5.920447800    -6.565173617    -20.981537223     0    0    1   #     H   Terminal
157 2   0.016216   -5.578236897    -8.509987861    -22.315324063     0    0    1   #     H   Terminal
158 1  -0.018155   -5.112191843    -7.221273804    -20.749718722     0    0    1   #     C        Sp2
159 1  -0.019578   -4.993891313    -8.473215770    -21.410790373     0    0    1   #     C        Sp2
160 2   0.018582   -4.630387862    -10.738309543   -22.536401008     0    0    1   #     H   Terminal
161 1   0.003527   -4.445969489    -7.106244994    -19.462616741     0    0    1   #     C        Sp2
162 1  -0.018554   -4.075566509    -10.319621162   -21.720875908     0    0    1   #     C        Sp2
163 1   0.009518   -3.869724383    -9.118740563    -21.126107822     0    0    1   #     C        Sp2
164 1   0.002146   -3.004156078    -7.600346732    -19.608448710     0    0    1   #     C        Sp2
165 1  -0.004496   -3.153476912    -8.840407487    -20.022000471     0    0    1   #     C        Sp2
166 1  -0.013792   -1.932401119    -10.953938231   -21.128976484     0    0    1   #     C        Sp2
167 1   0.000722   -1.976897993    -9.763897623    -20.108906781     0    0    1   #     C        Sp2
168 1  -0.005926   -0.848675306    -9.556265806    -19.366712852     0    0    1   #     C        Sp2
169 2   0.017302    0.584674256    -10.808194271   -22.105643406     0    1    0   #     H   Terminal
170 1  -0.002332    0.516764257    -9.210284197    -19.369988397     0    0    1   #     C        Sp2
171 1  -0.023628    1.387090026    -8.127921638    -19.289687207     0    0    1   #     C        Sp2
172 2   0.019065    2.217496912    -7.740733526    -19.762476372     0    0    1   #     H   Terminal
173 2   0.015130    1.871546589    -8.885697729    -22.253225979     0    1    0   #     H   Terminal
174 2   0.016690    3.615503463    -10.524509586   -21.343056263     0    1    0   #     H   Terminal
175 1  -0.026905    3.726628344    -9.546872277    -21.680473022     0    1    0   #     C        Sp2
176 2   0.016870    3.820498159    -7.354771045    -17.871018737     0    0    1   #     H   Terminal
177 2   0.021816    3.587686615    -6.951745068    -21.729360754    -1   -1    1   #     H   Terminal
178 2   0.017153    4.683728565    -7.719674327    -19.803055478    -1   -1    1   #     H   Terminal
179 1   0.006428    5.011854391    -9.318450096    -22.546354856     0    1    0   #     C        Sp2
180 1  -0.017573    5.258125275    -7.010002406    -20.246356775    -1   -1    1   #     C        Sp2
181 2   0.018842    6.696421409    -9.924633659    -21.058938724     0    1    0   #     H   Terminal
182 1  -0.024723    6.350442403    -9.557342737    -21.964808926     0    1    0   #     C        Sp2
183 1  -0.002104    7.516311414    -9.278835236    -22.563916259     0    1    0   #     C        Sp2
184 1  -0.019269    7.538903666    -6.596448598    -19.071607667    -1   -1    1   #     C        Sp2
185 2   0.014660    7.767978209    -7.705768951    -18.977050459    -1   -1    1   #     H   Terminal
186 2   0.018723    8.117830218    -7.653346785    -20.949992597     0    1    0   #     H   Terminal
187 1  -0.006325    8.588144679    -9.716485805    -21.594024392     0    1    0   #     C        Sp2
188 1  -0.014752    8.841311460    -8.587090432    -20.841028023     0    1    0   #     C        Sp2
189 2   0.020054    9.541514006    -9.422535382    -18.998527882    -1    1    0   #     H   Terminal
190 2   0.014851   10.088115418    -7.766101400    -18.832382258     0    1    0   #     H   Terminal
191 1  -0.037088    9.867917332    -8.549003250    -19.572210824     0    1    0   #     C        Sp3
192 1  -0.000495    9.840380419    -10.492550564   -22.032890354     0    1    0   #     C        Sp2
193 1   0.000158   10.921391410    -9.848379969    -21.547906998     0    1    0   #     C        Sp2
194 1   0.008505   10.991884329    -8.851707117    -20.453307963     0    1    0   #     C        Sp2
195 1  -0.000766   11.978545611    -9.690052614    -22.604461540     0    1    0   #     C        Sp2
196 2   0.012296   12.259133586    -7.450484227    -19.379835987     0    1    0   #     H   Terminal
197 1  -0.019906   12.261178401    -8.465310406    -19.870117362     0    1    0   #     C        Sp2
198 1  -0.017329   13.427030328    -8.906867127    -20.691689324     0    1    0   #     C        Sp2
199 1   0.004535   13.379065173    -9.312240661    -22.170191425     0    1    0   #     C        Sp2
200 2   0.017832   14.289747895    -9.024100328    -20.021987537     0    1    0   #     H   Terminal
201 2   0.012458   15.931351245    -6.329061805    -18.282235085     0   -1    1   #     H   Terminal
202 1  -0.018195   16.708347769    -6.767471247    -18.977891459     0   -1    1   #     C        Sp2
203 2   0.017209   17.446910540    -10.451025342   -20.696826457     0   -1    1   #     H   Terminal
204 2   0.019691   16.959381806    -8.602288132    -17.975723645     0   -1    1   #     H   Terminal
205 1  -0.015790   17.290921952    -7.950014247    -18.846436671     0   -1    1   #     C        Sp2
206 1  -0.015425   17.816726728    -9.395981553    -20.827930843     0   -1    1   #     C        Sp2
207 1   0.005145   18.364635877    -8.166149712    -20.010134613     0   -1    1   #     C        Sp2
208 1  -0.018909   18.196271726    -9.521253064    -22.220980634     0   -1    1   #     C        Sp2
209 1  -0.013703   -18.329071114   -3.438753511    -18.571277373     1   -1    1   #     C        Sp2
210 1  -0.001184   -17.819268348   -5.834335605    -19.880772135     1   -1    1   #     C        Sp2
211 1  -0.015237   -17.319740337   -3.549021901    -19.701133129     1   -1    1   #     C        Sp2
212 1  -0.003220   -16.864149444   -5.808681709    -22.542380527     1   -1    1   #     C        Sp2
213 1   0.003274   -17.070137175   -4.806928898    -20.388625884     1   -1    1   #     C        Sp2
214 2   0.017860   -16.597447103   -2.702054966    -19.535456702     1   -1    1   #     H   Terminal
215 1  -0.019143   -16.274833831   -5.084027160    -21.599624471     1   -1    1   #     C        Sp2
216 2   0.018625   -15.594684957   -4.046387533    -21.673124682     1   -1    1   #     H   Terminal
217 2   0.015686   -13.908188959   -5.547207172    -20.102743858     0    0    1   #     H   Terminal
218 1  -0.011880   -12.870538392   -5.727810087    -19.656911007     0    0    1   #     C        Sp2
219 2   0.014912   -11.994673004   -3.994611591    -20.808887275     0    0    1   #     H   Terminal
220 1  -0.017167   -11.885345145   -4.876116375    -19.950347408     0    0    1   #     C        Sp2
221 1   0.007752   -10.568569818   -5.149879331    -19.733400225     0    0    1   #     C        Sp2
222 1  -0.001349   -10.419033609   -6.234212491    -18.753676898     0    0    1   #     C        Sp2
223 2   0.018079   -9.570053192    -3.751143527    -21.143698941     0    0    1   #     H   Terminal
224 1  -0.025057   -9.610113312    -4.455268708    -20.509155631     0    0    1   #     C        Sp2
225 1  -0.000745   -9.225482476    -6.559313946    -18.332863864     0    0    1   #     C        Sp2
226 1  -0.017389   -8.287430224    -4.935600502    -20.221988633     0    0    1   #     C        Sp2
227 1   0.000876   -8.072465849    -5.857092878    -18.951408869     0    0    1   #     C        Sp2
228 2   0.014502   -7.455737301    -4.591828300    -20.815157945     0    0    1   #     H   Terminal
229 1  -0.001652   -6.719012025    -6.225874180    -18.602445140     0    0    1   #     C        Sp2
230 1  -0.003937   -5.236258807    -5.989190495    -18.942867094     0    0    1   #     C        Sp2
231 1  -0.015765   -2.615851452    -5.670551068    -18.359507591     0    0    1   #     C        Sp2
232 1  -0.028158   -2.129477923    -4.642842001    -22.709850331     0    0    1   #     C        Sp3
233 1   0.005049   -2.010336192    -3.356176682    -22.430403917     0    0    1   #     C        Sp2
234 1  -0.017815   -2.016658149    -6.732926626    -19.077086295     0    0    1   #     C        Sp2
235 2   0.016850   -2.515704456    -5.422023731    -21.771684497     0    0    1   #     H   Terminal
236 1  -0.005842   -1.593054344    -2.692470491    -21.133913040     0    0    1   #     C        Sp2
237 2   0.017556   -1.347104630    -4.947649687    -19.994384429     0    0    1   #     H   Terminal
238 2   0.017432   -0.864877444    -6.949674425    -19.302615008     0    0    1   #     H   Terminal
239 1  -0.020952   -0.624276725    -4.154095095    -19.869971422     0    0    1   #     C        Sp2
240 1   0.005087   -0.355038778    -2.726772939    -20.239080118     0    0    1   #     C        Sp2
241 2   0.013530    0.271918134    -5.121382575    22.442628818      0    0    0   #     H   Terminal
242 1  -0.017502    0.698765538    -4.744046530    -19.565357464     0    0    1   #     C        Sp2
243 2   0.019355    0.614661343    -5.820395463    -19.319309440     1    1    0   #     H   Terminal
244 2   0.021422    1.773588134    -2.979030679    -20.969980676     1    1    1   #     H   Terminal
245 1   0.003962    1.720453652    -2.338360387    -19.039989985     0    0    1   #     C        Sp2
246 1  -0.001599    1.783819388    -3.797726537    -19.072917204     0    0    1   #     C        Sp2
247 1  -0.018945    4.311960066    -6.451764452    -21.260582362    -1   -1    1   #     C        Sp2
248 1   0.005516    4.537847155    -5.248714921    -21.939193315    -1   -1    1   #     C        Sp2
249 1   0.001329    5.580536049    -3.025591787    -21.561119348    -1   -1    1   #     C        Sp2
250 1  -0.000276    5.437333496    -4.332475780    -21.113938854    -1   -1    1   #     C        Sp2
251 1   0.001275    6.115278522    -4.654530925    -19.899346823    -1   -1    1   #     C        Sp2
252 1   0.004607    6.351154723    -6.283170076    -19.635683854    -1   -1    1   #     C        Sp2
253 1   0.000480    6.530660701    -3.788519987    -18.794488630    -1   -1    1   #     C        Sp2
254 1   0.001197    6.553605392    -2.445562309    -19.354062750    -1   -1    1   #     C        Sp2
255 1  -0.013359    7.719365752    -4.429680047    -18.337486233    -1   -1    1   #     C        Sp2
256 1  -0.012816    8.400393059    -5.592652825    -18.653674813    -1   -1    1   #     C        Sp2
257 2   0.015950    8.698148778    -3.058956858    -21.730631631     0    0    1   #     H   Terminal
258 1  -0.007742    9.827050984    -2.994447289    -21.743754791     0    0    1   #     C        Sp2
259 1  -0.019764   10.677289600    -4.084534717    -21.597140419     0    0    1   #     C        Sp2
260 2   0.015983   10.636754116    -5.003010364    -21.105200506     0    0    1   #     H   Terminal
261 1   0.002216   11.877583448    -4.284423365    -22.321815141     0    0    1   #     C        Sp2
262 2   0.015259   12.358350754    -6.181817865    -21.446963561     0    0    1   #     H   Terminal
263 1  -0.015842   12.968256191    -5.256657116    -21.880315593     0    0    1   #     C        Sp2
264 2   0.020703   15.726663063    -2.793871407    -22.037455465    -1    1    1   #     H   Terminal
265 1  -0.018092   17.550241747    -4.401814073    -18.510626853     0   -1    1   #     C        Sp2
266 1   0.003648   17.761737893    -5.721623813    -19.223342289     0   -1    1   #     C        Sp2
267 2   0.018224   18.269463723    -2.705544338    -17.886463060     0   -1    1   #     H   Terminal
268 1  -0.015890   -18.254479302   -1.362825192    -22.550980073     0    1    1   #     C        Sp2
269 1  -0.000684   -18.215520665   -0.286895515    -21.509616130     0    1    1   #     C        Sp2
270 1   0.005442   -17.850078929    1.334917437    -19.371259645     0    1    1   #     C        Sp2
271 1  -0.025349   -17.263661142    1.987804076    -20.481782030     0    1    1   #     C        Sp2
272 1  -0.001818   -17.336058935    0.865757917    -21.429167268     0    1    1   #     C        Sp2
273 1  -0.001232   -15.888141543    0.526613438    -21.971726730     0    1    1   #     C        Sp2
274 2   0.018937   -15.931779366   -0.057459540    -18.133982146     0   -1    1   #     H   Terminal
275 2   0.019184   -15.327211489    0.141442578    -19.922577013     0    1    1   #     H   Terminal
276 1  -0.021884   -15.043972019   -0.037558548    -21.016164845     0    1    1   #     C        Sp2
277 1   0.008171   -14.121143756   -0.842131543    -21.646878578     0    1    1   #     C        Sp2
278 2   0.018990   -13.895578456   -2.312179053    -19.812943319     0    1    1   #     H   Terminal
279 1  -0.020430   -13.565864186   -2.036924393    -20.835714668     0    1    1   #     C        Sp2
280 1  -0.001380   -13.181577754    1.934641350    -18.841237304     0   -1    1   #     C        Sp2
281 2   0.015672   -11.730257202    0.078606564    -17.556881905    -1    0    1   #     H   Terminal
282 1  -0.009874   -12.140401240   -1.956610867    -20.997940263     0    1    1   #     C        Sp2
283 1  -0.005993   -12.045065648    1.085240595    -19.465302165    -1    0    1   #     C        Sp2
284 1  -0.022317   -11.819873735    1.920647766    -21.773676698    -1    0    1   #     C        Sp2
285 2   0.016503   -11.394507763   -2.475621285    -20.288457371     0    1    1   #     H   Terminal
286 1  -0.031036   -11.601237378   -1.502125233    -22.377917673     0    1    1   #     C        Sp3
287 1  -0.009405   -11.314337476    0.160383815    -18.724656067    -1    0    1   #     C        Sp2